14
	Energy:       1.1001234
C         -1.33591        0.84407       -0.02758
C          0.20034        0.78848       -0.11552
H         -1.65374        1.18507        0.96050
H         -1.76030       -0.14732       -0.20114
H         -1.74089        1.52677       -0.77826
C          0.82713        2.17776        0.12609
H          0.49090        0.41937       -1.10229
H          0.57753        0.07974        0.62597
C          2.36339        2.12217        0.03815
H          2.76837        1.43947        0.78883
H          2.78777        3.11356        0.21171
H          2.68121        1.78118       -0.94994
H          0.53658        2.54686        1.11286
H          0.44994        2.88650       -0.61540
