23
	Energy:       1.9977919
C         -4.95413        0.61375        0.02087
C         -3.70273       -0.28287       -0.00933
H         -4.97112        1.28174       -0.84347
H         -4.97262        1.21992        0.92961
H         -5.85825        0.00124       -0.00125
C         -2.40900        0.55783        0.02108
H         -3.72237       -0.89710       -0.91303
H         -3.72386       -0.95855        0.84937
C         -1.15610       -0.34271       -0.00928
H         -2.39474        1.17213        0.92515
H         -2.39327        1.23363       -0.83796
C          0.13770        0.49801        0.02112
H         -1.17051       -0.95697       -0.91336
H         -1.17198       -1.01847        0.84978
C          1.39055       -0.40249       -0.00928
H          0.15229        1.11230        0.92519
H          0.15373        1.17383       -0.83791
C          2.68266        0.43439        0.02098
H          2.72956        1.03900        0.92973
H          2.73101        1.10087       -0.84334
H          3.55702       -0.21989       -0.00115
H          1.38135       -1.01694       -0.91300
H          1.37991       -1.07844        0.84940
