17
	Energy:       1.4048139
C         -4.08241        1.37835       -0.05648
C         -2.84640        0.47232        0.09284
H         -4.08320        2.15896        0.70788
H         -4.99676        0.79083        0.05242
H         -4.09549        1.85416       -1.03985
C         -1.53855        1.27771       -0.05684
H         -2.88385       -0.31445       -0.66475
H         -2.87162       -0.01148        1.07246
C         -0.30117        0.36781        0.09317
H         -1.50633        2.06479        0.70108
H         -1.51855        1.76167       -1.03681
C          1.00499        1.16945       -0.05586
H          1.05729        1.64254       -1.03925
H          1.86807        0.50895        0.05328
H          1.06959        1.94741        0.70847
H         -0.32817       -0.41941       -0.66440
H         -0.31594       -0.11639        1.07280
