 Set GAUSS_CDEF to "0-39".
 Set GAUSS_MDEF to "64GB".
 Entering Gaussian System, Link 0=g16
 Initial command:
 /gpfslocalsup/prod/g16/rev-C01/g16/l1.exe "/gpfsscratch/rech/qev/rqev002/Gau-2330890.inp" -scrdir="/gpfsscratch/rech/qev/rqev002/"
 Default CPUs for threads: 0-39
 Default is to use a total of  40 processors:
                               40 via shared-memory
                                1 via Linda
 Entering Link 1 = /gpfslocalsup/prod/g16/rev-C01/g16/l1.exe PID=   2330891.
  
 Copyright (c) 1988-2019, Gaussian, Inc.  All Rights Reserved.
  
 This is part of the Gaussian(R) 16 program.  It is based on
 the Gaussian(R) 09 system (copyright 2009, Gaussian, Inc.),
 the Gaussian(R) 03 system (copyright 2003, Gaussian, Inc.),
 the Gaussian(R) 98 system (copyright 1998, Gaussian, Inc.),
 the Gaussian(R) 94 system (copyright 1995, Gaussian, Inc.),
 the Gaussian 92(TM) system (copyright 1992, Gaussian, Inc.),
 the Gaussian 90(TM) system (copyright 1990, Gaussian, Inc.),
 the Gaussian 88(TM) system (copyright 1988, Gaussian, Inc.),
 the Gaussian 86(TM) system (copyright 1986, Carnegie Mellon
 University), and the Gaussian 82(TM) system (copyright 1983,
 Carnegie Mellon University). Gaussian is a federally registered
 trademark of Gaussian, Inc.
  
 This software contains proprietary and confidential information,
 including trade secrets, belonging to Gaussian, Inc.
  
 This software is provided under written license and may be
 used, copied, transmitted, or stored only in accord with that
 written license.
  
 The following legend is applicable only to US Government
 contracts under FAR:
  
                    RESTRICTED RIGHTS LEGEND
  
 Use, reproduction and disclosure by the US Government is
 subject to restrictions as set forth in subparagraphs (a)
 and (c) of the Commercial Computer Software - Restricted
 Rights clause in FAR 52.227-19.
  
 Gaussian, Inc.
 340 Quinnipiac St., Bldg. 40, Wallingford CT 06492
  
  
 ---------------------------------------------------------------
 Warning -- This program may not be used in any manner that
 competes with the business of Gaussian, Inc. or will provide
 assistance to any competitor of Gaussian, Inc.  The licensee
 of this program is prohibited from giving any competitor of
 Gaussian, Inc. access to this program.  By using this program,
 the user acknowledges that Gaussian, Inc. is engaged in the
 business of creating and licensing software in the field of
 computational chemistry and represents and warrants to the
 licensee that it is not a competitor of Gaussian, Inc. and that
 it will not use this program in any manner prohibited above.
 ---------------------------------------------------------------
  

 Cite this work as:
 Gaussian 16, Revision C.01,
 M. J. Frisch, G. W. Trucks, H. B. Schlegel, G. E. Scuseria, 
 M. A. Robb, J. R. Cheeseman, G. Scalmani, V. Barone, 
 G. A. Petersson, H. Nakatsuji, X. Li, M. Caricato, A. V. Marenich, 
 J. Bloino, B. G. Janesko, R. Gomperts, B. Mennucci, H. P. Hratchian, 
 J. V. Ortiz, A. F. Izmaylov, J. L. Sonnenberg, D. Williams-Young, 
 F. Ding, F. Lipparini, F. Egidi, J. Goings, B. Peng, A. Petrone, 
 T. Henderson, D. Ranasinghe, V. G. Zakrzewski, J. Gao, N. Rega, 
 G. Zheng, W. Liang, M. Hada, M. Ehara, K. Toyota, R. Fukuda, 
 J. Hasegawa, M. Ishida, T. Nakajima, Y. Honda, O. Kitao, H. Nakai, 
 T. Vreven, K. Throssell, J. A. Montgomery, Jr., J. E. Peralta, 
 F. Ogliaro, M. J. Bearpark, J. J. Heyd, E. N. Brothers, K. N. Kudin, 
 V. N. Staroverov, T. A. Keith, R. Kobayashi, J. Normand, 
 K. Raghavachari, A. P. Rendell, J. C. Burant, S. S. Iyengar, 
 J. Tomasi, M. Cossi, J. M. Millam, M. Klene, C. Adamo, R. Cammi, 
 J. W. Ochterski, R. L. Martin, K. Morokuma, O. Farkas, 
 J. B. Foresman, and D. J. Fox, Gaussian, Inc., Wallingford CT, 2019.
 
 ******************************************
 Gaussian 16:  ES64L-G16RevC.01  3-Jul-2019
                25-Apr-2022 
 ******************************************
 %chk=met_opt.chk
 SetSPE:  set environment variable "MP_BIND" = "yes"
 SetSPE:  set environment variable "MP_BLIST" = "0,1,2,3,4,5,6,7,8,9,10,11,12,13,14,15,16,17,18,19,20,21,22,23,24,25,26,27,28,29,30,31,32,33,34,35,36,37,38,39"
 ----------------------------
 #p HF/6-31G(d) OPT SCF=Tight
 ----------------------------
 1/18=20,19=15,38=1/1,3;
 2/9=110,12=2,17=6,18=5,40=1/2;
 3/5=1,6=6,7=1,11=9,25=1,30=1,71=1/1,2,3;
 4//1;
 5/5=2,32=2,38=5/2;
 6/7=2,8=2,9=2,10=2,28=1/1;
 7//1,2,3,16;
 1/18=20,19=15/3(2);
 2/9=110/2;
 99//99;
 2/9=110/2;
 3/5=1,6=6,7=1,11=9,25=1,30=1,71=1/1,2,3;
 4/5=5,16=3,69=1/1;
 5/5=2,32=2,38=5/2;
 7//1,2,3,16;
 1/18=20,19=15/3(-5);
 2/9=110/2;
 6/7=2,8=2,9=2,10=2,19=2,28=1/1;
 99/9=1/99;
 Leave Link    1 at Mon Apr 25 13:10:20 2022, MaxMem=           0 cpu:               5.9 elap:               0.2
 (Enter /gpfslocalsup/prod/g16/rev-C01/g16/l101.exe)
 -------
 Methane
 -------
 Symbolic Z-matrix:
 Charge =  0 Multiplicity = 1
 C
 H                    1     1.07 
 H                    1     1.07     2     109.471 
 H                    1     1.07     2     109.47128  3     240.00003  0
 H                    1     1.07     2     109.47135  3     120.0001  0
 
     3 tetrahedral angles replaced.
 ITRead=  0  0  0  0  0
 MicOpt= -1 -1 -1 -1 -1
 NAtoms=      5 NQM=        5 NQMF=       0 NMMI=      0 NMMIF=      0
                NMic=       0 NMicF=      0.
                    Isotopes and Nuclear Properties:
 (Nuclear quadrupole moments (NQMom) in fm**2, nuclear magnetic moments (NMagM)
  in nuclear magnetons)

  Atom         1           2           3           4           5
 IAtWgt=          12           1           1           1           1
 AtmWgt=  12.0000000   1.0078250   1.0078250   1.0078250   1.0078250
 NucSpn=           0           1           1           1           1
 AtZEff=  -0.0000000  -0.0000000  -0.0000000  -0.0000000  -0.0000000
 NQMom=    0.0000000   0.0000000   0.0000000   0.0000000   0.0000000
 NMagM=    0.0000000   2.7928460   2.7928460   2.7928460   2.7928460
 AtZNuc=   6.0000000   1.0000000   1.0000000   1.0000000   1.0000000
 Leave Link  101 at Mon Apr 25 13:10:20 2022, MaxMem=  8589934592 cpu:              17.9 elap:               0.5
 (Enter /gpfslocalsup/prod/g16/rev-C01/g16/l103.exe)

 GradGradGradGradGradGradGradGradGradGradGradGradGradGradGradGradGradGrad
 Berny optimization.
 Initialization pass.
                           ----------------------------
                           !    Initial Parameters    !
                           ! (Angstroms and Degrees)  !
 --------------------------                            --------------------------
 ! Name  Definition              Value          Derivative Info.                !
 --------------------------------------------------------------------------------
 ! R1    R(1,2)                  1.07           estimate D2E/DX2                !
 ! R2    R(1,3)                  1.07           estimate D2E/DX2                !
 ! R3    R(1,4)                  1.07           estimate D2E/DX2                !
 ! R4    R(1,5)                  1.07           estimate D2E/DX2                !
 ! A1    A(2,1,3)              109.4712         estimate D2E/DX2                !
 ! A2    A(2,1,4)              109.4712         estimate D2E/DX2                !
 ! A3    A(2,1,5)              109.4712         estimate D2E/DX2                !
 ! A4    A(3,1,4)              109.4712         estimate D2E/DX2                !
 ! A5    A(3,1,5)              109.4713         estimate D2E/DX2                !
 ! A6    A(4,1,5)              109.4712         estimate D2E/DX2                !
 ! D1    D(2,1,4,3)            120.0            estimate D2E/DX2                !
 ! D2    D(2,1,5,3)           -120.0001         estimate D2E/DX2                !
 ! D3    D(2,1,5,4)            120.0            estimate D2E/DX2                !
 ! D4    D(3,1,5,4)           -120.0            estimate D2E/DX2                !
 --------------------------------------------------------------------------------
 Trust Radius=3.00D-01 FncErr=1.00D-07 GrdErr=1.00D-07 EigMax=2.50D+02 EigMin=1.00D-04
 Number of steps in this run=     24 maximum allowed number of steps=    100.
 GradGradGradGradGradGradGradGradGradGradGradGradGradGradGradGradGradGrad

 Leave Link  103 at Mon Apr 25 13:10:21 2022, MaxMem=  8589934592 cpu:               0.4 elap:               0.0
 (Enter /gpfslocalsup/prod/g16/rev-C01/g16/l202.exe)
                          Input orientation:                          
 ---------------------------------------------------------------------
 Center     Atomic      Atomic             Coordinates (Angstroms)
 Number     Number       Type             X           Y           Z
 ---------------------------------------------------------------------
      1          6           0        0.000000    0.000000    0.000000
      2          1           0        0.000000    0.000000    1.070000
      3          1           0        1.008806    0.000000   -0.356667
      4          1           0       -0.504402    0.873652   -0.356667
      5          1           0       -0.504404   -0.873650   -0.356667
 ---------------------------------------------------------------------
                    Distance matrix (angstroms):
                    1          2          3          4          5
     1  C    0.000000
     2  H    1.070000   0.000000
     3  H    1.070000   1.747303   0.000000
     4  H    1.070000   1.747303   1.747302   0.000000
     5  H    1.070000   1.747303   1.747304   1.747302   0.000000
 Stoichiometry    CH4
 Framework group  D2D[O(C),2SGD(H2)]
 Deg. of freedom     2
 Full point group                 D2D     NOp   8
 Largest Abelian subgroup         C2V     NOp   4
 Largest concise Abelian subgroup C2V     NOp   4
                         Standard orientation:                         
 ---------------------------------------------------------------------
 Center     Atomic      Atomic             Coordinates (Angstroms)
 Number     Number       Type             X           Y           Z
 ---------------------------------------------------------------------
      1          6           0       -0.000000    0.000000    0.000000
      2          1           0       -0.873651    0.000000    0.617765
      3          1           0       -0.000000   -0.873651   -0.617765
      4          1           0        0.873651    0.000000    0.617765
      5          1           0        0.000000    0.873651   -0.617765
 ---------------------------------------------------------------------
 Rotational constants (GHZ):         164.2463673         164.2463650         164.2463650
 Leave Link  202 at Mon Apr 25 13:10:21 2022, MaxMem=  8589934592 cpu:               0.3 elap:               0.0
 (Enter /gpfslocalsup/prod/g16/rev-C01/g16/l301.exe)
 Standard basis: 6-31G(d) (6D, 7F)
 Ernie: Thresh=  0.10000D-02 Tol=  0.10000D-05 Strict=F.
 There are    12 symmetry adapted cartesian basis functions of A1  symmetry.
 There are     1 symmetry adapted cartesian basis functions of A2  symmetry.
 There are     5 symmetry adapted cartesian basis functions of B1  symmetry.
 There are     5 symmetry adapted cartesian basis functions of B2  symmetry.
 There are    12 symmetry adapted basis functions of A1  symmetry.
 There are     1 symmetry adapted basis functions of A2  symmetry.
 There are     5 symmetry adapted basis functions of B1  symmetry.
 There are     5 symmetry adapted basis functions of B2  symmetry.
    23 basis functions,    44 primitive gaussians,    23 cartesian basis functions
     5 alpha electrons        5 beta electrons
       nuclear repulsion energy        13.6865180257 Hartrees.
 IExCor=    0 DFT=F Ex=HF Corr=None ExCW=0 ScaHFX=  1.000000
 ScaDFX=  1.000000  1.000000  1.000000  1.000000 ScalE2=  1.000000  1.000000
 IRadAn=      5 IRanWt=     -1 IRanGd=            0 ICorTp=0 IEmpDi=  4
 NAtoms=    5 NActive=    5 NUniq=    2 SFac= 4.00D+00 NAtFMM=   60 NAOKFM=F Big=F
 Integral buffers will be    131072 words long.
 Raffenetti 1 integral format.
 Two-electron integral symmetry is turned on.
 Leave Link  301 at Mon Apr 25 13:10:21 2022, MaxMem=  8589934592 cpu:               2.1 elap:               0.1
 (Enter /gpfslocalsup/prod/g16/rev-C01/g16/l302.exe)
 NPDir=0 NMtPBC=     1 NCelOv=     1 NCel=       1 NClECP=     1 NCelD=      1
         NCelK=      1 NCelE2=     1 NClLst=     1 CellRange=     0.0.
 One-electron integrals computed using PRISM.
 One-electron integral symmetry used in STVInt
 NBasis=    23 RedAO= T EigKep=  1.66D-02  NBF=    12     1     5     5
 NBsUse=    23 1.00D-06 EigRej= -1.00D+00 NBFU=    12     1     5     5
 Leave Link  302 at Mon Apr 25 13:10:21 2022, MaxMem=  8589934592 cpu:               4.1 elap:               0.1
 (Enter /gpfslocalsup/prod/g16/rev-C01/g16/l303.exe)
 DipDrv:  MaxL=1.
 Leave Link  303 at Mon Apr 25 13:10:21 2022, MaxMem=  8589934592 cpu:               0.8 elap:               0.1
 (Enter /gpfslocalsup/prod/g16/rev-C01/g16/l401.exe)
 ExpMin= 1.61D-01 ExpMax= 3.05D+03 ExpMxC= 4.57D+02 IAcc=3 IRadAn=         5 AccDes= 0.00D+00
 Harris functional with IExCor=  205 and IRadAn=       5 diagonalized for initial guess.
 HarFok:  IExCor=  205 AccDes= 0.00D+00 IRadAn=         5 IDoV= 1 UseB2=F ITyADJ=14
 ICtDFT=  3500011 ScaDFX=  1.000000  1.000000  1.000000  1.000000
 FoFCou: FMM=F IPFlag=           0 FMFlag=      100000 FMFlg1=           0
         NFxFlg=           0 DoJE=T BraDBF=F KetDBF=T FulRan=T
         wScrn=  0.000000 ICntrl=       500 IOpCl=  0 I1Cent=   200000004 NGrid=           0
         NMat0=    1 NMatS0=      1 NMatT0=    0 NMatD0=    1 NMtDS0=    0 NMtDT0=    0
 Petite list used in FoFCou.
 Harris En= -40.3796213896109    
 JPrj=0 DoOrth=F DoCkMO=F.
 Initial guess orbital symmetries:
       Occupied  (A1) (A1) (B2) (E) (E)
       Virtual   (A1) (B2) (E) (E) (E) (E) (B2) (B2) (E) (E) (A1)
                 (A1) (A1) (B1) (E) (E) (B2) (A1)
 The electronic state of the initial guess is 1-A1.
 Leave Link  401 at Mon Apr 25 13:10:22 2022, MaxMem=  8589934592 cpu:               5.4 elap:               0.2
 (Enter /gpfslocalsup/prod/g16/rev-C01/g16/l502.exe)
 Keep R1 ints in memory in symmetry-blocked form, NReq=8268167.
 FoFCou: FMM=F IPFlag=           0 FMFlag=           0 FMFlg1=           0
         NFxFlg=           0 DoJE=F BraDBF=F KetDBF=F FulRan=T
         wScrn=  0.000000 ICntrl=       600 IOpCl=  0 I1Cent=           0 NGrid=           0
         NMat0=    1 NMatS0=    276 NMatT0=    0 NMatD0=    1 NMtDS0=    0 NMtDT0=    0
 Petite list used in FoFCou.
 Closed shell SCF:
 Using DIIS extrapolation, IDIIS=  1040.
 NGot=  8589934592 LenX=  8589919554 LenY=  8589918584
 Requested convergence on RMS density matrix=1.00D-08 within 128 cycles.
 Requested convergence on MAX density matrix=1.00D-06.
 Requested convergence on             energy=1.00D-06.
 No special actions if energy rises.

 Cycle   1  Pass 1  IDiag  1:
 E= -40.0611834045974    
 DIIS: error= 8.47D-02 at cycle   1 NSaved=   1.
 NSaved= 1 IEnMin= 1 EnMin= -40.0611834045974     IErMin= 1 ErrMin= 8.47D-02
 ErrMax= 8.47D-02  0.00D+00 EMaxC= 1.00D-01 BMatC= 1.45D-01 BMatP= 1.45D-01
 IDIUse=3 WtCom= 1.53D-01 WtEn= 8.47D-01
 Coeff-Com:  0.100D+01
 Coeff-En:   0.100D+01
 Coeff:      0.100D+01
 Gap=     0.727 Goal=   None    Shift=    0.000
 GapD=    0.727 DampG=2.000 DampE=0.500 DampFc=1.0000 IDamp=-1.
 RMSDP=1.60D-02 MaxDP=1.37D-01              OVMax= 1.47D-01

 Cycle   2  Pass 1  IDiag  1:
 E= -40.1751000912420     Delta-E=       -0.113916686645 Rises=F Damp=F
 DIIS: error= 3.31D-02 at cycle   2 NSaved=   2.
 NSaved= 2 IEnMin= 2 EnMin= -40.1751000912420     IErMin= 2 ErrMin= 3.31D-02
 ErrMax= 3.31D-02  0.00D+00 EMaxC= 1.00D-01 BMatC= 2.20D-02 BMatP= 1.45D-01
 IDIUse=3 WtCom= 6.69D-01 WtEn= 3.31D-01
 Coeff-Com:  0.251D+00 0.749D+00
 Coeff-En:   0.000D+00 0.100D+01
 Coeff:      0.168D+00 0.832D+00
 Gap=     0.821 Goal=   None    Shift=    0.000
 RMSDP=4.96D-03 MaxDP=3.95D-02 DE=-1.14D-01 OVMax= 4.38D-02

 Cycle   3  Pass 1  IDiag  1:
 E= -40.1940837167468     Delta-E=       -0.018983625505 Rises=F Damp=F
 DIIS: error= 5.37D-03 at cycle   3 NSaved=   3.
 NSaved= 3 IEnMin= 3 EnMin= -40.1940837167468     IErMin= 3 ErrMin= 5.37D-03
 ErrMax= 5.37D-03  0.00D+00 EMaxC= 1.00D-01 BMatC= 4.88D-04 BMatP= 2.20D-02
 IDIUse=3 WtCom= 9.46D-01 WtEn= 5.37D-02
 Coeff-Com: -0.258D-01 0.812D-01 0.945D+00
 Coeff-En:   0.000D+00 0.000D+00 0.100D+01
 Coeff:     -0.244D-01 0.769D-01 0.948D+00
 Gap=     0.809 Goal=   None    Shift=    0.000
 RMSDP=8.20D-04 MaxDP=6.30D-03 DE=-1.90D-02 OVMax= 7.59D-03

 Cycle   4  Pass 1  IDiag  1:
 E= -40.1946334072205     Delta-E=       -0.000549690474 Rises=F Damp=F
 DIIS: error= 3.72D-04 at cycle   4 NSaved=   4.
 NSaved= 4 IEnMin= 4 EnMin= -40.1946334072205     IErMin= 4 ErrMin= 3.72D-04
 ErrMax= 3.72D-04  0.00D+00 EMaxC= 1.00D-01 BMatC= 3.60D-06 BMatP= 4.88D-04
 IDIUse=3 WtCom= 9.96D-01 WtEn= 3.72D-03
 Coeff-Com:  0.802D-02-0.395D-01-0.322D+00 0.135D+01
 Coeff-En:   0.000D+00 0.000D+00 0.000D+00 0.100D+01
 Coeff:      0.799D-02-0.394D-01-0.321D+00 0.135D+01
 Gap=     0.809 Goal=   None    Shift=    0.000
 RMSDP=1.68D-04 MaxDP=8.13D-04 DE=-5.50D-04 OVMax= 9.28D-04

 Cycle   5  Pass 1  IDiag  1:
 E= -40.1946396801291     Delta-E=       -0.000006272909 Rises=F Damp=F
 DIIS: error= 2.88D-05 at cycle   5 NSaved=   5.
 NSaved= 5 IEnMin= 5 EnMin= -40.1946396801291     IErMin= 5 ErrMin= 2.88D-05
 ErrMax= 2.88D-05  0.00D+00 EMaxC= 1.00D-01 BMatC= 1.80D-08 BMatP= 3.60D-06
 IDIUse=1 WtCom= 1.00D+00 WtEn= 0.00D+00
 Coeff-Com: -0.141D-02 0.737D-02 0.597D-01-0.302D+00 0.124D+01
 Coeff:     -0.141D-02 0.737D-02 0.597D-01-0.302D+00 0.124D+01
 Gap=     0.809 Goal=   None    Shift=    0.000
 RMSDP=2.10D-05 MaxDP=8.86D-05 DE=-6.27D-06 OVMax= 9.25D-05

 Cycle   6  Pass 1  IDiag  1:
 E= -40.1946397229340     Delta-E=       -0.000000042805 Rises=F Damp=F
 DIIS: error= 1.53D-06 at cycle   6 NSaved=   6.
 NSaved= 6 IEnMin= 6 EnMin= -40.1946397229340     IErMin= 6 ErrMin= 1.53D-06
 ErrMax= 1.53D-06  0.00D+00 EMaxC= 1.00D-01 BMatC= 4.12D-11 BMatP= 1.80D-08
 IDIUse=1 WtCom= 1.00D+00 WtEn= 0.00D+00
 Coeff-Com:  0.112D-03-0.566D-03-0.465D-02 0.253D-01-0.141D+00 0.112D+01
 Coeff:      0.112D-03-0.566D-03-0.465D-02 0.253D-01-0.141D+00 0.112D+01
 Gap=     0.809 Goal=   None    Shift=    0.000
 RMSDP=1.01D-06 MaxDP=5.59D-06 DE=-4.28D-08 OVMax= 3.69D-06

 Cycle   7  Pass 1  IDiag  1:
 E= -40.1946397230093     Delta-E=       -0.000000000075 Rises=F Damp=F
 DIIS: error= 1.10D-07 at cycle   7 NSaved=   7.
 NSaved= 7 IEnMin= 7 EnMin= -40.1946397230093     IErMin= 7 ErrMin= 1.10D-07
 ErrMax= 1.10D-07  0.00D+00 EMaxC= 1.00D-01 BMatC= 1.98D-13 BMatP= 4.12D-11
 IDIUse=1 WtCom= 1.00D+00 WtEn= 0.00D+00
 Coeff-Com: -0.555D-05 0.262D-04 0.232D-03-0.138D-02 0.889D-02-0.105D+00
 Coeff-Com:  0.110D+01
 Coeff:     -0.555D-05 0.262D-04 0.232D-03-0.138D-02 0.889D-02-0.105D+00
 Coeff:      0.110D+01
 Gap=     0.809 Goal=   None    Shift=    0.000
 RMSDP=5.32D-08 MaxDP=6.01D-07 DE=-7.53D-11 OVMax= 1.41D-07

 Cycle   8  Pass 1  IDiag  1:
 E= -40.1946397230095     Delta-E=       -0.000000000000 Rises=F Damp=F
 DIIS: error= 9.10D-09 at cycle   8 NSaved=   8.
 NSaved= 8 IEnMin= 8 EnMin= -40.1946397230095     IErMin= 8 ErrMin= 9.10D-09
 ErrMax= 9.10D-09  0.00D+00 EMaxC= 1.00D-01 BMatC= 7.62D-16 BMatP= 1.98D-13
 IDIUse=1 WtCom= 1.00D+00 WtEn= 0.00D+00
 Coeff-Com:  0.446D-06-0.189D-05-0.176D-04 0.110D-03-0.653D-03 0.921D-02
 Coeff-Com: -0.138D+00 0.113D+01
 Coeff:      0.446D-06-0.189D-05-0.176D-04 0.110D-03-0.653D-03 0.921D-02
 Coeff:     -0.138D+00 0.113D+01
 Gap=     0.809 Goal=   None    Shift=    0.000
 RMSDP=2.90D-09 MaxDP=3.80D-08 DE=-1.85D-13 OVMax= 2.24D-08

 SCF Done:  E(RHF) =  -40.1946397230     A.U. after    8 cycles
            NFock=  8  Conv=0.29D-08     -V/T= 1.9983
 KE= 4.026198660727D+01 PE=-1.204289093323D+02 EE= 2.628576497634D+01
 Leave Link  502 at Mon Apr 25 13:10:22 2022, MaxMem=  8589934592 cpu:               5.1 elap:               0.2
 (Enter /gpfslocalsup/prod/g16/rev-C01/g16/l601.exe)
 Copying SCF densities to generalized density rwf, IOpCl= 0 IROHF=0.

 **********************************************************************

            Population analysis using the SCF Density.

 **********************************************************************

 Orbital symmetries:
       Occupied  (A1) (A1) (B2) (E) (E)
       Virtual   (A1) (E) (E) (B2) (E) (E) (B2) (E) (E) (B2) (A1)
                 (A1) (A1) (B1) (B2) (E) (E) (A1)
 The electronic state is 1-A1.
 Alpha  occ. eigenvalues --  -11.19828  -0.95026  -0.54972  -0.54972  -0.54972
 Alpha virt. eigenvalues --    0.25968   0.33158   0.33158   0.33158   0.72334
 Alpha virt. eigenvalues --    0.72334   0.72334   1.19701   1.19701   1.19701
 Alpha virt. eigenvalues --    1.27372   1.32075   1.93840   1.93840   2.61196
 Alpha virt. eigenvalues --    2.61196   2.61196   4.62291
          Condensed to atoms (all electrons):
               1          2          3          4          5
     1  C    5.099412   0.391149   0.391149   0.391149   0.391149
     2  H    0.391149   0.522145  -0.026432  -0.026432  -0.026432
     3  H    0.391149  -0.026432   0.522145  -0.026432  -0.026432
     4  H    0.391149  -0.026432  -0.026432   0.522145  -0.026432
     5  H    0.391149  -0.026432  -0.026432  -0.026432   0.522145
 Mulliken charges:
               1
     1  C   -0.664009
     2  H    0.166002
     3  H    0.166002
     4  H    0.166002
     5  H    0.166002
 Sum of Mulliken charges =  -0.00000
 Mulliken charges with hydrogens summed into heavy atoms:
               1
     1  C   -0.000000
 Electronic spatial extent (au):  <R**2>=             34.9263
 Charge=              0.0000 electrons
 Dipole moment (field-independent basis, Debye):
    X=              0.0000    Y=              0.0000    Z=             -0.0000  Tot=              0.0000
 Quadrupole moment (field-independent basis, Debye-Ang):
   XX=             -8.3268   YY=             -8.3268   ZZ=             -8.3268
   XY=              0.0000   XZ=              0.0000   YZ=              0.0000
 Traceless Quadrupole moment (field-independent basis, Debye-Ang):
   XX=             -0.0000   YY=             -0.0000   ZZ=              0.0000
   XY=              0.0000   XZ=              0.0000   YZ=              0.0000
 Octapole moment (field-independent basis, Debye-Ang**2):
  XXX=              0.0000  YYY=             -0.0000  ZZZ=             -0.0000  XYY=             -0.0000
  XXY=             -0.0000  XXZ=              0.6085  XZZ=              0.0000  YZZ=             -0.0000
  YYZ=             -0.6085  XYZ=             -0.0000
 Hexadecapole moment (field-independent basis, Debye-Ang**3):
 XXXX=            -14.8424 YYYY=            -14.8424 ZZZZ=            -15.4613 XXXY=              0.0000
 XXXZ=              0.0000 YYYX=              0.0000 YYYZ=             -0.0000 ZZZX=              0.0000
 ZZZY=             -0.0000 XXYY=             -5.3601 XXZZ=             -4.7411 YYZZ=             -4.7411
 XXYZ=              0.0000 YYXZ=             -0.0000 ZZXY=              0.0000
 N-N= 1.368651802568D+01 E-N=-1.204289093206D+02  KE= 4.026198660727D+01
 Symmetry A1   KE= 3.640080636859D+01
 Symmetry A2   KE= 2.044715238700D-31
 Symmetry B1   KE= 1.930590119337D+00
 Symmetry B2   KE= 1.930590119337D+00
 No NMR shielding tensors so no spin-rotation constants.
 Leave Link  601 at Mon Apr 25 13:10:22 2022, MaxMem=  8589934592 cpu:               3.9 elap:               0.1
 (Enter /gpfslocalsup/prod/g16/rev-C01/g16/l701.exe)
 ... and contract with generalized density number  0.
 Compute integral first derivatives.
 Leave Link  701 at Mon Apr 25 13:10:22 2022, MaxMem=  8589934592 cpu:               4.3 elap:               0.1
 (Enter /gpfslocalsup/prod/g16/rev-C01/g16/l702.exe)
 L702 exits ... SP integral derivatives will be done elsewhere.
 Leave Link  702 at Mon Apr 25 13:10:22 2022, MaxMem=  8589934592 cpu:               0.8 elap:               0.0
 (Enter /gpfslocalsup/prod/g16/rev-C01/g16/l703.exe)
 Integral derivatives from FoFJK, PRISM(SPDF).
 Compute integral first derivatives, UseDBF=F ICtDFT=           0.
 Calling FoFJK, ICntrl=      2127 FMM=F ISym2X=1 I1Cent= 0 IOpClX= 0 NMat=1 NMatS=1 NMatT=0.
 FoFJK:  IHMeth= 1 ICntrl=    2127 DoSepK=F KAlg= 0 I1Cent=           0 FoldK=F
 IRaf=         0 NMat=       1 IRICut=       1 DoRegI=T DoRafI=F ISym2E= 1 IDoP0=0 IntGTp=1.
 FoFCou: FMM=F IPFlag=           0 FMFlag=      100000 FMFlg1=         800
         NFxFlg=           0 DoJE=F BraDBF=F KetDBF=F FulRan=T
         wScrn=  0.000000 ICntrl=      2127 IOpCl=  0 I1Cent=           0 NGrid=           0
         NMat0=    1 NMatS0=      1 NMatT0=    0 NMatD0=    1 NMtDS0=    0 NMtDT0=    0
 Petite list used in FoFCou.
 Leave Link  703 at Mon Apr 25 13:10:23 2022, MaxMem=  8589934592 cpu:               5.7 elap:               0.2
 (Enter /gpfslocalsup/prod/g16/rev-C01/g16/l716.exe)
 Dipole        = 8.16457841D-16 0.00000000D+00-4.44089210D-16
 ***** Axes restored to original set *****
 -------------------------------------------------------------------
 Center     Atomic                   Forces (Hartrees/Bohr)
 Number     Number              X              Y              Z
 -------------------------------------------------------------------
      1        6          -0.000000000    0.000000000   -0.000000000
      2        1          -0.000000002   -0.000000005    0.010435687
      3        1           0.009838861   -0.000000006   -0.003478559
      4        1          -0.004919422    0.008520708   -0.003478562
      5        1          -0.004919437   -0.008520697   -0.003478566
 -------------------------------------------------------------------
 Cartesian Forces:  Max     0.010435687 RMS     0.005388966
 Leave Link  716 at Mon Apr 25 13:10:23 2022, MaxMem=  8589934592 cpu:               1.0 elap:               0.0
 (Enter /gpfslocalsup/prod/g16/rev-C01/g16/l103.exe)

 GradGradGradGradGradGradGradGradGradGradGradGradGradGradGradGradGradGrad
 Berny optimization.
 FormGI is forming the generalized inverse of G from B-inverse, IUseBI=4.
 Internal  Forces:  Max     0.010435687 RMS     0.005578109
 Search for a local minimum.
 Step number   1 out of a maximum of   24
 All quantities printed in internal units (Hartrees-Bohrs-Radians)
 RMS Force = .55781D-02 SwitMx=.10000D-02 MixMth= 1
 Mixed Optimization -- RFO/linear search
 Second derivative matrix not updated -- first step.
 The second derivative matrix:
                          R1        R2        R3        R4        A1
           R1           0.37230
           R2           0.00000   0.37230
           R3           0.00000   0.00000   0.37230
           R4           0.00000   0.00000   0.00000   0.37230
           A1           0.00000   0.00000   0.00000   0.00000   0.16000
           A2           0.00000   0.00000   0.00000   0.00000   0.00000
           A3           0.00000   0.00000   0.00000   0.00000   0.00000
           A4           0.00000   0.00000   0.00000   0.00000   0.00000
           A5           0.00000   0.00000   0.00000   0.00000   0.00000
           A6           0.00000   0.00000   0.00000   0.00000   0.00000
           D1           0.00000   0.00000   0.00000   0.00000   0.00000
           D2           0.00000   0.00000   0.00000   0.00000   0.00000
           D3           0.00000   0.00000   0.00000   0.00000   0.00000
           D4           0.00000   0.00000   0.00000   0.00000   0.00000
                          A2        A3        A4        A5        A6
           A2           0.16000
           A3           0.00000   0.16000
           A4           0.00000   0.00000   0.16000
           A5           0.00000   0.00000   0.00000   0.16000
           A6           0.00000   0.00000   0.00000   0.00000   0.16000
           D1           0.00000   0.00000   0.00000   0.00000   0.00000
           D2           0.00000   0.00000   0.00000   0.00000   0.00000
           D3           0.00000   0.00000   0.00000   0.00000   0.00000
           D4           0.00000   0.00000   0.00000   0.00000   0.00000
                          D1        D2        D3        D4
           D1           0.00499
           D2           0.00000   0.00499
           D3           0.00000   0.00000   0.00499
           D4           0.00000   0.00000   0.00000   0.00499
 ITU=  0
     Eigenvalues ---    0.05269   0.05891   0.08766   0.16000   0.16000
     Eigenvalues ---    0.37230   0.37230   0.37230   0.37230
 RFO step:  Lambda=-1.16640491D-03 EMin= 5.26880970D-02
 Linear search not attempted -- first point.
 Iteration  1 RMS(Cart)=  0.01493600 RMS(Int)=  0.00000000
 Iteration  2 RMS(Cart)=  0.00000000 RMS(Int)=  0.00000000
 ITry= 1 IFail=0 DXMaxC= 2.79D-02 DCOld= 1.00D+10 DXMaxT= 3.00D-01 DXLimC= 3.00D+00 Rises=F
 ClnCor:  largest displacement from symmetrization is 3.25D-10 for atom     3.
 Variable       Old X    -DE/DX   Delta X   Delta X   Delta X     New X
                                 (Linear)    (Quad)   (Total)
    R1        2.02201   0.01044   0.00000   0.02794   0.02794   2.04995
    R2        2.02201   0.01044   0.00000   0.02794   0.02794   2.04995
    R3        2.02201   0.01044   0.00000   0.02794   0.02794   2.04995
    R4        2.02201   0.01044   0.00000   0.02794   0.02794   2.04995
    A1        1.91063  -0.00000   0.00000  -0.00000  -0.00000   1.91063
    A2        1.91063   0.00000   0.00000   0.00000   0.00000   1.91063
    A3        1.91063  -0.00000   0.00000  -0.00000  -0.00000   1.91063
    A4        1.91063  -0.00000   0.00000  -0.00000  -0.00000   1.91063
    A5        1.91063   0.00000   0.00000   0.00000   0.00000   1.91063
    A6        1.91063  -0.00000   0.00000  -0.00000  -0.00000   1.91063
    D1        2.09440  -0.00000   0.00000  -0.00000  -0.00000   2.09440
    D2       -2.09440   0.00000   0.00000   0.00000   0.00000  -2.09440
    D3        2.09440   0.00000   0.00000   0.00000   0.00000   2.09440
    D4       -2.09440   0.00000   0.00000   0.00000   0.00000  -2.09440
         Item               Value     Threshold  Converged?
 Maximum Force            0.010436     0.000450     NO 
 RMS     Force            0.005578     0.000300     NO 
 Maximum Displacement     0.027943     0.001800     NO 
 RMS     Displacement     0.014936     0.001200     NO 
 Predicted change in Energy=-5.850239D-04
 Lowest energy point so far.  Saving SCF results.
 GradGradGradGradGradGradGradGradGradGradGradGradGradGradGradGradGradGrad

 Leave Link  103 at Mon Apr 25 13:10:23 2022, MaxMem=  8589934592 cpu:               0.6 elap:               0.0
 (Enter /gpfslocalsup/prod/g16/rev-C01/g16/l202.exe)
                          Input orientation:                          
 ---------------------------------------------------------------------
 Center     Atomic      Atomic             Coordinates (Angstroms)
 Number     Number       Type             X           Y           Z
 ---------------------------------------------------------------------
      1          6           0       -0.000000    0.000000    0.000000
      2          1           0       -0.000000   -0.000000    1.084787
      3          1           0        1.022747   -0.000001   -0.361595
      4          1           0       -0.511373    0.885725   -0.361595
      5          1           0       -0.511374   -0.885724   -0.361596
 ---------------------------------------------------------------------
                    Distance matrix (angstroms):
                    1          2          3          4          5
     1  C    0.000000
     2  H    1.084787   0.000000
     3  H    1.084787   1.771449   0.000000
     4  H    1.084787   1.771449   1.771449   0.000000
     5  H    1.084787   1.771449   1.771449   1.771449   0.000000
 Stoichiometry    CH4
 Framework group  TD[O(C),4C3(H)]
 Deg. of freedom     1
 Full point group                 TD      NOp  24
 Omega: Change in point group or standard orientation.

 Old FWG=D02D [O(C1),2SGD(H2)]
 New FWG=TD   [O(C1),4C3(H1)]
 RotChk:  IX=0 Diff= 2.14D+00
 Largest Abelian subgroup         D2      NOp   4
 Largest concise Abelian subgroup D2      NOp   4
                         Standard orientation:                         
 ---------------------------------------------------------------------
 Center     Atomic      Atomic             Coordinates (Angstroms)
 Number     Number       Type             X           Y           Z
 ---------------------------------------------------------------------
      1          6           0        0.000000    0.000000    0.000000
      2          1           0        0.626302    0.626302    0.626302
      3          1           0       -0.626302   -0.626302    0.626302
      4          1           0        0.626302   -0.626302   -0.626302
      5          1           0       -0.626302    0.626302   -0.626302
 ---------------------------------------------------------------------
 Rotational constants (GHZ):         159.7992257         159.7992257         159.7992257
 Leave Link  202 at Mon Apr 25 13:10:23 2022, MaxMem=  8589934592 cpu:               0.5 elap:               0.0
 (Enter /gpfslocalsup/prod/g16/rev-C01/g16/l301.exe)
 Standard basis: 6-31G(d) (6D, 7F)
 Ernie: Thresh=  0.10000D-02 Tol=  0.10000D-05 Strict=F.
 There are     8 symmetry adapted cartesian basis functions of A   symmetry.
 There are     5 symmetry adapted cartesian basis functions of B1  symmetry.
 There are     5 symmetry adapted cartesian basis functions of B2  symmetry.
 There are     5 symmetry adapted cartesian basis functions of B3  symmetry.
 There are     8 symmetry adapted basis functions of A   symmetry.
 There are     5 symmetry adapted basis functions of B1  symmetry.
 There are     5 symmetry adapted basis functions of B2  symmetry.
 There are     5 symmetry adapted basis functions of B3  symmetry.
    23 basis functions,    44 primitive gaussians,    23 cartesian basis functions
     5 alpha electrons        5 beta electrons
       nuclear repulsion energy        13.4999582254 Hartrees.
 IExCor=    0 DFT=F Ex=HF Corr=None ExCW=0 ScaHFX=  1.000000
 ScaDFX=  1.000000  1.000000  1.000000  1.000000 ScalE2=  1.000000  1.000000
 IRadAn=      5 IRanWt=     -1 IRanGd=            0 ICorTp=0 IEmpDi=  4
 NAtoms=    5 NActive=    5 NUniq=    2 SFac= 4.00D+00 NAtFMM=   60 NAOKFM=F Big=F
 Integral buffers will be    131072 words long.
 Raffenetti 1 integral format.
 Two-electron integral symmetry is turned on.
 Leave Link  301 at Mon Apr 25 13:10:23 2022, MaxMem=  8589934592 cpu:               2.3 elap:               0.1
 (Enter /gpfslocalsup/prod/g16/rev-C01/g16/l302.exe)
 NPDir=0 NMtPBC=     1 NCelOv=     1 NCel=       1 NClECP=     1 NCelD=      1
         NCelK=      1 NCelE2=     1 NClLst=     1 CellRange=     0.0.
 One-electron integrals computed using PRISM.
 One-electron integral symmetry used in STVInt
 NBasis=    23 RedAO= T EigKep=  1.75D-02  NBF=     8     5     5     5
 NBsUse=    23 1.00D-06 EigRej= -1.00D+00 NBFU=     8     5     5     5
 Leave Link  302 at Mon Apr 25 13:10:23 2022, MaxMem=  8589934592 cpu:               4.3 elap:               0.1
 (Enter /gpfslocalsup/prod/g16/rev-C01/g16/l303.exe)
 DipDrv:  MaxL=1.
 Leave Link  303 at Mon Apr 25 13:10:23 2022, MaxMem=  8589934592 cpu:               1.0 elap:               0.1
 (Enter /gpfslocalsup/prod/g16/rev-C01/g16/l401.exe)
 Initial guess from the checkpoint file:  "met_opt.chk"
 B after Tr=    -0.000000   -0.000000    0.000000
         Rot=    0.653281    0.270598   -0.653281    0.270598 Ang=  98.42 deg.
 Guess basis will be translated and rotated to current coordinates.
 JPrj=2 DoOrth=T DoCkMO=T.
 Initial guess orbital symmetries:
       Occupied  (A1) (A1) (T2) (T2) (T2)
       Virtual   (A1) (T2) (T2) (T2) (T2) (T2) (T2) (T2) (T2) (T2)
                 (A1) (A1) (E) (E) (T2) (T2) (T2) (A1)
 The electronic state of the initial guess is 1-A1.
 Generating alternative initial guess.
 ExpMin= 1.61D-01 ExpMax= 3.05D+03 ExpMxC= 4.57D+02 IAcc=3 IRadAn=         5 AccDes= 0.00D+00
 Harris functional with IExCor=  205 and IRadAn=       5 diagonalized for initial guess.
 HarFok:  IExCor=  205 AccDes= 0.00D+00 IRadAn=         5 IDoV= 1 UseB2=F ITyADJ=14
 ICtDFT=  3500011 ScaDFX=  1.000000  1.000000  1.000000  1.000000
 FoFCou: FMM=F IPFlag=           0 FMFlag=      100000 FMFlg1=           0
         NFxFlg=           0 DoJE=T BraDBF=F KetDBF=T FulRan=T
         wScrn=  0.000000 ICntrl=       500 IOpCl=  0 I1Cent=   200000004 NGrid=           0
         NMat0=    1 NMatS0=      1 NMatT0=    0 NMatD0=    1 NMtDS0=    0 NMtDT0=    0
 Petite list used in FoFCou.
 Harris En= -40.3751988753037    
 Leave Link  401 at Mon Apr 25 13:10:24 2022, MaxMem=  8589934592 cpu:               7.9 elap:               0.2
 (Enter /gpfslocalsup/prod/g16/rev-C01/g16/l502.exe)
 Keep R1 ints in memory in symmetry-blocked form, NReq=8268295.
 FoFCou: FMM=F IPFlag=           0 FMFlag=           0 FMFlg1=           0
         NFxFlg=           0 DoJE=F BraDBF=F KetDBF=F FulRan=T
         wScrn=  0.000000 ICntrl=       600 IOpCl=  0 I1Cent=           0 NGrid=           0
         NMat0=    1 NMatS0=    276 NMatT0=    0 NMatD0=    1 NMtDS0=    0 NMtDT0=    0
 Petite list used in FoFCou.
 Closed shell SCF:
 Using DIIS extrapolation, IDIIS=  1040.
 NGot=  8589934592 LenX=  8589920658 LenY=  8589919688
 Requested convergence on RMS density matrix=1.00D-08 within 128 cycles.
 Requested convergence on MAX density matrix=1.00D-06.
 Requested convergence on             energy=1.00D-06.
 No special actions if energy rises.
 An orbital has undefined symmetry, so N**3 symmetry is turned off.

 Cycle   1  Pass 1  IDiag  1:
 E= -40.1950175881226    
 DIIS: error= 2.49D-03 at cycle   1 NSaved=   1.
 NSaved= 1 IEnMin= 1 EnMin= -40.1950175881226     IErMin= 1 ErrMin= 2.49D-03
 ErrMax= 2.49D-03  0.00D+00 EMaxC= 1.00D-01 BMatC= 1.24D-04 BMatP= 1.24D-04
 IDIUse=3 WtCom= 9.75D-01 WtEn= 2.49D-02
 Coeff-Com:  0.100D+01
 Coeff-En:   0.100D+01
 Coeff:      0.100D+01
 Gap=     0.801 Goal=   None    Shift=    0.000
 GapD=    0.801 DampG=2.000 DampE=1.000 DampFc=2.0000 IDamp=-1.
 RMSDP=5.15D-04 MaxDP=3.67D-03              OVMax= 4.47D-03

 Cycle   2  Pass 1  IDiag  1:
 E= -40.1951510746095     Delta-E=       -0.000133486487 Rises=F Damp=F
 DIIS: error= 9.00D-04 at cycle   2 NSaved=   2.
 NSaved= 2 IEnMin= 2 EnMin= -40.1951510746095     IErMin= 2 ErrMin= 9.00D-04
 ErrMax= 9.00D-04  0.00D+00 EMaxC= 1.00D-01 BMatC= 1.89D-05 BMatP= 1.24D-04
 IDIUse=3 WtCom= 9.91D-01 WtEn= 9.00D-03
 Coeff-Com:  0.234D+00 0.766D+00
 Coeff-En:   0.000D+00 0.100D+01
 Coeff:      0.232D+00 0.768D+00
 Gap=     0.803 Goal=   None    Shift=    0.000
 RMSDP=1.35D-04 MaxDP=1.06D-03 DE=-1.33D-04 OVMax= 1.15D-03

 Cycle   3  Pass 1  IDiag  1:
 E= -40.1951679973617     Delta-E=       -0.000016922752 Rises=F Damp=F
 DIIS: error= 1.54D-04 at cycle   3 NSaved=   3.
 NSaved= 3 IEnMin= 3 EnMin= -40.1951679973617     IErMin= 3 ErrMin= 1.54D-04
 ErrMax= 1.54D-04  0.00D+00 EMaxC= 1.00D-01 BMatC= 2.75D-07 BMatP= 1.89D-05
 IDIUse=3 WtCom= 9.98D-01 WtEn= 1.54D-03
 Coeff-Com: -0.551D-01-0.404D-01 0.110D+01
 Coeff-En:   0.000D+00 0.000D+00 0.100D+01
 Coeff:     -0.550D-01-0.404D-01 0.110D+01
 Gap=     0.803 Goal=   None    Shift=    0.000
 RMSDP=2.44D-05 MaxDP=2.21D-04 DE=-1.69D-05 OVMax= 1.81D-04

 Cycle   4  Pass 1  IDiag  1:
 E= -40.1951683749826     Delta-E=       -0.000000377621 Rises=F Damp=F
 DIIS: error= 9.72D-06 at cycle   4 NSaved=   4.
 NSaved= 4 IEnMin= 4 EnMin= -40.1951683749826     IErMin= 4 ErrMin= 9.72D-06
 ErrMax= 9.72D-06  0.00D+00 EMaxC= 1.00D-01 BMatC= 2.42D-09 BMatP= 2.75D-07
 IDIUse=1 WtCom= 1.00D+00 WtEn= 0.00D+00
 Coeff-Com:  0.111D-01 0.107D-01-0.260D+00 0.124D+01
 Coeff:      0.111D-01 0.107D-01-0.260D+00 0.124D+01
 Gap=     0.803 Goal=   None    Shift=    0.000
 RMSDP=4.68D-06 MaxDP=2.15D-05 DE=-3.78D-07 OVMax= 2.47D-05

 Cycle   5  Pass 1  IDiag  1:
 E= -40.1951683795359     Delta-E=       -0.000000004553 Rises=F Damp=F
 DIIS: error= 1.25D-06 at cycle   5 NSaved=   5.
 NSaved= 5 IEnMin= 5 EnMin= -40.1951683795359     IErMin= 5 ErrMin= 1.25D-06
 ErrMax= 1.25D-06  0.00D+00 EMaxC= 1.00D-01 BMatC= 3.48D-11 BMatP= 2.42D-09
 IDIUse=1 WtCom= 1.00D+00 WtEn= 0.00D+00
 Coeff-Com: -0.157D-02-0.143D-02 0.380D-01-0.264D+00 0.123D+01
 Coeff:     -0.157D-02-0.143D-02 0.380D-01-0.264D+00 0.123D+01
 Gap=     0.803 Goal=   None    Shift=    0.000
 RMSDP=7.97D-07 MaxDP=3.58D-06 DE=-4.55D-09 OVMax= 3.86D-06

 Cycle   6  Pass 1  IDiag  1:
 E= -40.1951683796146     Delta-E=       -0.000000000079 Rises=F Damp=F
 DIIS: error= 2.02D-07 at cycle   6 NSaved=   6.
 NSaved= 6 IEnMin= 6 EnMin= -40.1951683796146     IErMin= 6 ErrMin= 2.02D-07
 ErrMax= 2.02D-07  0.00D+00 EMaxC= 1.00D-01 BMatC= 4.30D-13 BMatP= 3.48D-11
 IDIUse=1 WtCom= 1.00D+00 WtEn= 0.00D+00
 Coeff-Com:  0.530D-03 0.565D-03-0.132D-01 0.929D-01-0.467D+00 0.139D+01
 Coeff:      0.530D-03 0.565D-03-0.132D-01 0.929D-01-0.467D+00 0.139D+01
 Gap=     0.803 Goal=   None    Shift=    0.000
 RMSDP=7.52D-08 MaxDP=4.49D-07 DE=-7.86D-11 OVMax= 4.08D-07

 Cycle   7  Pass 1  IDiag  1:
 E= -40.1951683796153     Delta-E=       -0.000000000001 Rises=F Damp=F
 DIIS: error= 8.23D-09 at cycle   7 NSaved=   7.
 NSaved= 7 IEnMin= 7 EnMin= -40.1951683796153     IErMin= 7 ErrMin= 8.23D-09
 ErrMax= 8.23D-09  0.00D+00 EMaxC= 1.00D-01 BMatC= 5.68D-16 BMatP= 4.30D-13
 IDIUse=1 WtCom= 1.00D+00 WtEn= 0.00D+00
 Coeff-Com: -0.753D-04-0.798D-04 0.187D-02-0.132D-01 0.674D-01-0.219D+00
 Coeff-Com:  0.116D+01
 Coeff:     -0.753D-04-0.798D-04 0.187D-02-0.132D-01 0.674D-01-0.219D+00
 Coeff:      0.116D+01
 Gap=     0.803 Goal=   None    Shift=    0.000
 RMSDP=2.72D-09 MaxDP=3.46D-08 DE=-7.96D-13 OVMax= 2.15D-08

 SCF Done:  E(RHF) =  -40.1951683796     A.U. after    7 cycles
            NFock=  7  Conv=0.27D-08     -V/T= 2.0005
 KE= 4.017635336913D+01 PE=-1.199920486108D+02 EE= 2.612056863656D+01
 Leave Link  502 at Mon Apr 25 13:10:24 2022, MaxMem=  8589934592 cpu:               5.1 elap:               0.2
 (Enter /gpfslocalsup/prod/g16/rev-C01/g16/l701.exe)
 ... and contract with generalized density number  0.
 Compute integral first derivatives.
 Leave Link  701 at Mon Apr 25 13:10:24 2022, MaxMem=  8589934592 cpu:               4.6 elap:               0.1
 (Enter /gpfslocalsup/prod/g16/rev-C01/g16/l702.exe)
 L702 exits ... SP integral derivatives will be done elsewhere.
 Leave Link  702 at Mon Apr 25 13:10:24 2022, MaxMem=  8589934592 cpu:               1.0 elap:               0.0
 (Enter /gpfslocalsup/prod/g16/rev-C01/g16/l703.exe)
 Integral derivatives from FoFJK, PRISM(SPDF).
 Compute integral first derivatives, UseDBF=F ICtDFT=           0.
 Calling FoFJK, ICntrl=      2127 FMM=F ISym2X=1 I1Cent= 0 IOpClX= 0 NMat=1 NMatS=1 NMatT=0.
 FoFJK:  IHMeth= 1 ICntrl=    2127 DoSepK=F KAlg= 0 I1Cent=           0 FoldK=F
 IRaf=         0 NMat=       1 IRICut=       1 DoRegI=T DoRafI=F ISym2E= 1 IDoP0=0 IntGTp=1.
 FoFCou: FMM=F IPFlag=           0 FMFlag=      100000 FMFlg1=         800
         NFxFlg=           0 DoJE=F BraDBF=F KetDBF=F FulRan=T
         wScrn=  0.000000 ICntrl=      2127 IOpCl=  0 I1Cent=           0 NGrid=           0
         NMat0=    1 NMatS0=      1 NMatT0=    0 NMatD0=    1 NMtDS0=    0 NMtDT0=    0
 Petite list used in FoFCou.
 Leave Link  703 at Mon Apr 25 13:10:24 2022, MaxMem=  8589934592 cpu:               5.9 elap:               0.2
 (Enter /gpfslocalsup/prod/g16/rev-C01/g16/l716.exe)
 Dipole        =-2.22044605D-16-2.22044605D-16-6.66133815D-16
 ***** Axes restored to original set *****
 -------------------------------------------------------------------
 Center     Atomic                   Forces (Hartrees/Bohr)
 Number     Number              X              Y              Z
 -------------------------------------------------------------------
      1        6           0.000000000    0.000000000    0.000000000
      2        1           0.000000000    0.000000000   -0.000829049
      3        1          -0.000781635    0.000000001    0.000276350
      4        1           0.000390817   -0.000676916    0.000276350
      5        1           0.000390818    0.000676916    0.000276350
 -------------------------------------------------------------------
 Cartesian Forces:  Max     0.000829049 RMS     0.000428119
 Leave Link  716 at Mon Apr 25 13:10:24 2022, MaxMem=  8589934592 cpu:               1.0 elap:               0.1
 (Enter /gpfslocalsup/prod/g16/rev-C01/g16/l103.exe)

 GradGradGradGradGradGradGradGradGradGradGradGradGradGradGradGradGradGrad
 Berny optimization.
 Using GEDIIS/GDIIS optimizer.
 FormGI is forming the generalized inverse of G from B-inverse, IUseBI=4.
 Internal  Forces:  Max     0.000829049 RMS     0.000443146
 Search for a local minimum.
 Step number   2 out of a maximum of   24
 All quantities printed in internal units (Hartrees-Bohrs-Radians)
 RMS Force = .44315D-03 SwitMx=.10000D-02 MixMth= 2
 Mixed Optimization -- En-DIIS/RFO-DIIS
 Update second derivatives using D2CorX and points    1    2
 DE= -5.29D-04 DEPred=-5.85D-04 R= 9.04D-01
 TightC=F SS=  1.41D+00  RLast= 5.59D-02 DXNew= 5.0454D-01 1.6766D-01
 Trust test= 9.04D-01 RLast= 5.59D-02 DXMaxT set to 3.00D-01
 The second derivative matrix:
                          R1        R2        R3        R4        A1
           R1           0.38001
           R2           0.00771   0.38001
           R3           0.00771   0.00771   0.38001
           R4           0.00771   0.00771   0.00771   0.38001
           A1           0.00000   0.00000   0.00000   0.00000   0.16000
           A2          -0.00000  -0.00000  -0.00000  -0.00000   0.00000
           A3          -0.00000  -0.00000  -0.00000  -0.00000  -0.00000
           A4           0.00000   0.00000   0.00000   0.00000  -0.00000
           A5           0.00000   0.00000   0.00000   0.00000   0.00000
           A6          -0.00000  -0.00000  -0.00000  -0.00000  -0.00000
           D1          -0.00000  -0.00000  -0.00000  -0.00000   0.00000
           D2           0.00000   0.00000   0.00000   0.00000  -0.00000
           D3           0.00000   0.00000   0.00000   0.00000  -0.00000
           D4           0.00000   0.00000   0.00000   0.00000  -0.00000
                          A2        A3        A4        A5        A6
           A2           0.16000
           A3           0.00000   0.16000
           A4           0.00000  -0.00000   0.16000
           A5          -0.00000  -0.00000   0.00000   0.16000
           A6           0.00000   0.00000  -0.00000  -0.00000   0.16000
           D1          -0.00000   0.00000   0.00000  -0.00000   0.00000
           D2           0.00000  -0.00000  -0.00000   0.00000  -0.00000
           D3           0.00000  -0.00000  -0.00000   0.00000  -0.00000
           D4           0.00000  -0.00000  -0.00000   0.00000  -0.00000
                          D1        D2        D3        D4
           D1           0.00499
           D2          -0.00000   0.00499
           D3          -0.00000   0.00000   0.00499
           D4          -0.00000   0.00000   0.00000   0.00499
 ITU=  1  0
 Use linear search instead of GDIIS.
     Eigenvalues ---    0.05269   0.05891   0.08766   0.16000   0.16000
     Eigenvalues ---    0.37230   0.37230   0.37230   0.40314
 RFO step:  Lambda= 0.00000000D+00 EMin= 5.26880969D-02
 Quartic linear search produced a step of -0.07634.
 Iteration  1 RMS(Cart)=  0.00114024 RMS(Int)=  0.00000000
 Iteration  2 RMS(Cart)=  0.00000000 RMS(Int)=  0.00000000
 ITry= 1 IFail=0 DXMaxC= 2.13D-03 DCOld= 1.00D+10 DXMaxT= 3.00D-01 DXLimC= 3.00D+00 Rises=F
 ClnCor:  largest displacement from symmetrization is 1.79D-10 for atom     2.
 Variable       Old X    -DE/DX   Delta X   Delta X   Delta X     New X
                                 (Linear)    (Quad)   (Total)
    R1        2.04995  -0.00083  -0.00213  -0.00000  -0.00213   2.04782
    R2        2.04995  -0.00083  -0.00213  -0.00000  -0.00213   2.04782
    R3        2.04995  -0.00083  -0.00213  -0.00000  -0.00213   2.04782
    R4        2.04995  -0.00083  -0.00213   0.00000  -0.00213   2.04782
    A1        1.91063   0.00000   0.00000  -0.00000   0.00000   1.91063
    A2        1.91063   0.00000  -0.00000   0.00000   0.00000   1.91063
    A3        1.91063  -0.00000   0.00000  -0.00000   0.00000   1.91063
    A4        1.91063  -0.00000   0.00000  -0.00000   0.00000   1.91063
    A5        1.91063   0.00000  -0.00000   0.00000   0.00000   1.91063
    A6        1.91063   0.00000   0.00000  -0.00000   0.00000   1.91063
    D1        2.09440   0.00000   0.00000  -0.00000   0.00000   2.09440
    D2       -2.09440   0.00000  -0.00000   0.00000  -0.00000  -2.09440
    D3        2.09440   0.00000  -0.00000   0.00000   0.00000   2.09440
    D4       -2.09440   0.00000  -0.00000   0.00000   0.00000  -2.09440
         Item               Value     Threshold  Converged?
 Maximum Force            0.000829     0.000450     NO 
 RMS     Force            0.000443     0.000300     NO 
 Maximum Displacement     0.002133     0.001800     NO 
 RMS     Displacement     0.001140     0.001200     YES
 Predicted change in Energy=-3.405128D-06
 Lowest energy point so far.  Saving SCF results.
 GradGradGradGradGradGradGradGradGradGradGradGradGradGradGradGradGradGrad

 Leave Link  103 at Mon Apr 25 13:10:24 2022, MaxMem=  8589934592 cpu:               0.8 elap:               0.1
 (Enter /gpfslocalsup/prod/g16/rev-C01/g16/l202.exe)
                          Input orientation:                          
 ---------------------------------------------------------------------
 Center     Atomic      Atomic             Coordinates (Angstroms)
 Number     Number       Type             X           Y           Z
 ---------------------------------------------------------------------
      1          6           0       -0.000000    0.000000    0.000000
      2          1           0       -0.000000   -0.000000    1.083658
      3          1           0        1.021682   -0.000001   -0.361219
      4          1           0       -0.510840    0.884804   -0.361219
      5          1           0       -0.510842   -0.884802   -0.361220
 ---------------------------------------------------------------------
                    Distance matrix (angstroms):
                    1          2          3          4          5
     1  C    0.000000
     2  H    1.083658   0.000000
     3  H    1.083658   1.769606   0.000000
     4  H    1.083658   1.769606   1.769606   0.000000
     5  H    1.083658   1.769606   1.769606   1.769606   0.000000
 Stoichiometry    CH4
 Framework group  TD[O(C),4C3(H)]
 Deg. of freedom     1
 Full point group                 TD      NOp  24
 RotChk:  IX=0 Diff= 7.76D-16
 Largest Abelian subgroup         D2      NOp   4
 Largest concise Abelian subgroup D2      NOp   4
                         Standard orientation:                         
 ---------------------------------------------------------------------
 Center     Atomic      Atomic             Coordinates (Angstroms)
 Number     Number       Type             X           Y           Z
 ---------------------------------------------------------------------
      1          6           0        0.000000    0.000000    0.000000
      2          1           0        0.625650    0.625650    0.625650
      3          1           0       -0.625650   -0.625650    0.625650
      4          1           0        0.625650   -0.625650   -0.625650
      5          1           0       -0.625650    0.625650   -0.625650
 ---------------------------------------------------------------------
 Rotational constants (GHZ):         160.1323224         160.1323224         160.1323224
 Leave Link  202 at Mon Apr 25 13:10:24 2022, MaxMem=  8589934592 cpu:               0.5 elap:               0.0
 (Enter /gpfslocalsup/prod/g16/rev-C01/g16/l301.exe)
 Standard basis: 6-31G(d) (6D, 7F)
 Ernie: Thresh=  0.10000D-02 Tol=  0.10000D-05 Strict=F.
 There are     8 symmetry adapted cartesian basis functions of A   symmetry.
 There are     5 symmetry adapted cartesian basis functions of B1  symmetry.
 There are     5 symmetry adapted cartesian basis functions of B2  symmetry.
 There are     5 symmetry adapted cartesian basis functions of B3  symmetry.
 There are     8 symmetry adapted basis functions of A   symmetry.
 There are     5 symmetry adapted basis functions of B1  symmetry.
 There are     5 symmetry adapted basis functions of B2  symmetry.
 There are     5 symmetry adapted basis functions of B3  symmetry.
    23 basis functions,    44 primitive gaussians,    23 cartesian basis functions
     5 alpha electrons        5 beta electrons
       nuclear repulsion energy        13.5140210295 Hartrees.
 IExCor=    0 DFT=F Ex=HF Corr=None ExCW=0 ScaHFX=  1.000000
 ScaDFX=  1.000000  1.000000  1.000000  1.000000 ScalE2=  1.000000  1.000000
 IRadAn=      5 IRanWt=     -1 IRanGd=            0 ICorTp=0 IEmpDi=  4
 NAtoms=    5 NActive=    5 NUniq=    2 SFac= 4.00D+00 NAtFMM=   60 NAOKFM=F Big=F
 Integral buffers will be    131072 words long.
 Raffenetti 1 integral format.
 Two-electron integral symmetry is turned on.
 Leave Link  301 at Mon Apr 25 13:10:24 2022, MaxMem=  8589934592 cpu:               2.3 elap:               0.1
 (Enter /gpfslocalsup/prod/g16/rev-C01/g16/l302.exe)
 NPDir=0 NMtPBC=     1 NCelOv=     1 NCel=       1 NClECP=     1 NCelD=      1
         NCelK=      1 NCelE2=     1 NClLst=     1 CellRange=     0.0.
 One-electron integrals computed using PRISM.
 One-electron integral symmetry used in STVInt
 NBasis=    23 RedAO= T EigKep=  1.74D-02  NBF=     8     5     5     5
 NBsUse=    23 1.00D-06 EigRej= -1.00D+00 NBFU=     8     5     5     5
 Leave Link  302 at Mon Apr 25 13:10:25 2022, MaxMem=  8589934592 cpu:               4.3 elap:               0.1
 (Enter /gpfslocalsup/prod/g16/rev-C01/g16/l303.exe)
 DipDrv:  MaxL=1.
 Leave Link  303 at Mon Apr 25 13:10:25 2022, MaxMem=  8589934592 cpu:               1.0 elap:               0.1
 (Enter /gpfslocalsup/prod/g16/rev-C01/g16/l401.exe)
 Initial guess from the checkpoint file:  "met_opt.chk"
 B after Tr=    -0.000000   -0.000000    0.000000
         Rot=    1.000000    0.000000    0.000000    0.000000 Ang=   0.00 deg.
 Guess basis will be translated and rotated to current coordinates.
 JPrj=2 DoOrth=T DoCkMO=T.
 Initial guess orbital symmetries:
       Occupied  (A1) (A1) (T2) (T2) (T2)
       Virtual   (A1) (T2) (T2) (T2) (T2) (T2) (T2) (T2) (T2) (T2)
                 (A1) (A1) (E) (E) (T2) (T2) (T2) (A1)
 The electronic state of the initial guess is 1-A1.
 Leave Link  401 at Mon Apr 25 13:10:25 2022, MaxMem=  8589934592 cpu:               3.6 elap:               0.1
 (Enter /gpfslocalsup/prod/g16/rev-C01/g16/l502.exe)
 Keep R1 ints in memory in symmetry-blocked form, NReq=8268295.
 FoFCou: FMM=F IPFlag=           0 FMFlag=           0 FMFlg1=           0
         NFxFlg=           0 DoJE=F BraDBF=F KetDBF=F FulRan=T
         wScrn=  0.000000 ICntrl=       600 IOpCl=  0 I1Cent=           0 NGrid=           0
         NMat0=    1 NMatS0=    276 NMatT0=    0 NMatD0=    1 NMtDS0=    0 NMtDT0=    0
 Petite list used in FoFCou.
 Closed shell SCF:
 Using DIIS extrapolation, IDIIS=  1040.
 NGot=  8589934592 LenX=  8589920658 LenY=  8589919688
 Requested convergence on RMS density matrix=1.00D-08 within 128 cycles.
 Requested convergence on MAX density matrix=1.00D-06.
 Requested convergence on             energy=1.00D-06.
 No special actions if energy rises.
 An orbital has undefined symmetry, so N**3 symmetry is turned off.

 Cycle   1  Pass 1  IDiag  1:
 E= -40.1951710538955    
 DIIS: error= 1.89D-04 at cycle   1 NSaved=   1.
 NSaved= 1 IEnMin= 1 EnMin= -40.1951710538955     IErMin= 1 ErrMin= 1.89D-04
 ErrMax= 1.89D-04  0.00D+00 EMaxC= 1.00D-01 BMatC= 7.11D-07 BMatP= 7.11D-07
 IDIUse=3 WtCom= 9.98D-01 WtEn= 1.89D-03
 Coeff-Com:  0.100D+01
 Coeff-En:   0.100D+01
 Coeff:      0.100D+01
 Gap=     0.803 Goal=   None    Shift=    0.000
 RMSDP=3.89D-05 MaxDP=2.77D-04              OVMax= 3.39D-04

 Cycle   2  Pass 1  IDiag  1:
 E= -40.1951718202292     Delta-E=       -0.000000766334 Rises=F Damp=F
 DIIS: error= 6.83D-05 at cycle   2 NSaved=   2.
 NSaved= 2 IEnMin= 2 EnMin= -40.1951718202292     IErMin= 2 ErrMin= 6.83D-05
 ErrMax= 6.83D-05  0.00D+00 EMaxC= 1.00D-01 BMatC= 1.09D-07 BMatP= 7.11D-07
 IDIUse=1 WtCom= 1.00D+00 WtEn= 0.00D+00
 Coeff-Com:  0.234D+00 0.766D+00
 Coeff:      0.234D+00 0.766D+00
 Gap=     0.803 Goal=   None    Shift=    0.000
 RMSDP=1.02D-05 MaxDP=8.08D-05 DE=-7.66D-07 OVMax= 8.71D-05

 Cycle   3  Pass 1  IDiag  1:
 E= -40.1951719174458     Delta-E=       -0.000000097217 Rises=F Damp=F
 DIIS: error= 1.17D-05 at cycle   3 NSaved=   3.
 NSaved= 3 IEnMin= 3 EnMin= -40.1951719174458     IErMin= 3 ErrMin= 1.17D-05
 ErrMax= 1.17D-05  0.00D+00 EMaxC= 1.00D-01 BMatC= 1.55D-09 BMatP= 1.09D-07
 IDIUse=1 WtCom= 1.00D+00 WtEn= 0.00D+00
 Coeff-Com: -0.549D-01-0.433D-01 0.110D+01
 Coeff:     -0.549D-01-0.433D-01 0.110D+01
 Gap=     0.803 Goal=   None    Shift=    0.000
 RMSDP=1.82D-06 MaxDP=1.63D-05 DE=-9.72D-08 OVMax= 1.37D-05

 Cycle   4  Pass 1  IDiag  1:
 E= -40.1951719195783     Delta-E=       -0.000000002132 Rises=F Damp=F
 DIIS: error= 7.42D-07 at cycle   4 NSaved=   4.
 NSaved= 4 IEnMin= 4 EnMin= -40.1951719195783     IErMin= 4 ErrMin= 7.42D-07
 ErrMax= 7.42D-07  0.00D+00 EMaxC= 1.00D-01 BMatC= 1.41D-11 BMatP= 1.55D-09
 IDIUse=1 WtCom= 1.00D+00 WtEn= 0.00D+00
 Coeff-Com:  0.109D-01 0.114D-01-0.258D+00 0.124D+01
 Coeff:      0.109D-01 0.114D-01-0.258D+00 0.124D+01
 Gap=     0.803 Goal=   None    Shift=    0.000
 RMSDP=3.53D-07 MaxDP=1.63D-06 DE=-2.13D-09 OVMax= 1.87D-06

 Cycle   5  Pass 1  IDiag  1:
 E= -40.1951719196046     Delta-E=       -0.000000000026 Rises=F Damp=F
 DIIS: error= 9.61D-08 at cycle   5 NSaved=   5.
 NSaved= 5 IEnMin= 5 EnMin= -40.1951719196046     IErMin= 5 ErrMin= 9.61D-08
 ErrMax= 9.61D-08  0.00D+00 EMaxC= 1.00D-01 BMatC= 2.05D-13 BMatP= 1.41D-11
 IDIUse=1 WtCom= 1.00D+00 WtEn= 0.00D+00
 Coeff-Com: -0.154D-02-0.155D-02 0.380D-01-0.266D+00 0.123D+01
 Coeff:     -0.154D-02-0.155D-02 0.380D-01-0.266D+00 0.123D+01
 Gap=     0.803 Goal=   None    Shift=    0.000
 RMSDP=6.15D-08 MaxDP=2.74D-07 DE=-2.63D-11 OVMax= 2.97D-07

 Cycle   6  Pass 1  IDiag  1:
 E= -40.1951719196050     Delta-E=       -0.000000000000 Rises=F Damp=F
 DIIS: error= 1.55D-08 at cycle   6 NSaved=   6.
 NSaved= 6 IEnMin= 6 EnMin= -40.1951719196050     IErMin= 6 ErrMin= 1.55D-08
 ErrMax= 1.55D-08  0.00D+00 EMaxC= 1.00D-01 BMatC= 2.51D-15 BMatP= 2.05D-13
 IDIUse=1 WtCom= 1.00D+00 WtEn= 0.00D+00
 Coeff-Com:  0.515D-03 0.603D-03-0.131D-01 0.931D-01-0.466D+00 0.138D+01
 Coeff:      0.515D-03 0.603D-03-0.131D-01 0.931D-01-0.466D+00 0.138D+01
 Gap=     0.803 Goal=   None    Shift=    0.000
 RMSDP=5.73D-09 MaxDP=3.44D-08 DE=-4.69D-13 OVMax= 3.11D-08

 SCF Done:  E(RHF) =  -40.1951719196     A.U. after    6 cycles
            NFock=  6  Conv=0.57D-08     -V/T= 2.0003
 KE= 4.018277942865D+01 PE=-1.200250304609D+02 EE= 2.613305808312D+01
 Leave Link  502 at Mon Apr 25 13:10:25 2022, MaxMem=  8589934592 cpu:               5.3 elap:               0.2
 (Enter /gpfslocalsup/prod/g16/rev-C01/g16/l701.exe)
 ... and contract with generalized density number  0.
 Compute integral first derivatives.
 Leave Link  701 at Mon Apr 25 13:10:25 2022, MaxMem=  8589934592 cpu:               4.7 elap:               0.1
 (Enter /gpfslocalsup/prod/g16/rev-C01/g16/l702.exe)
 L702 exits ... SP integral derivatives will be done elsewhere.
 Leave Link  702 at Mon Apr 25 13:10:25 2022, MaxMem=  8589934592 cpu:               1.0 elap:               0.0
 (Enter /gpfslocalsup/prod/g16/rev-C01/g16/l703.exe)
 Integral derivatives from FoFJK, PRISM(SPDF).
 Compute integral first derivatives, UseDBF=F ICtDFT=           0.
 Calling FoFJK, ICntrl=      2127 FMM=F ISym2X=1 I1Cent= 0 IOpClX= 0 NMat=1 NMatS=1 NMatT=0.
 FoFJK:  IHMeth= 1 ICntrl=    2127 DoSepK=F KAlg= 0 I1Cent=           0 FoldK=F
 IRaf=         0 NMat=       1 IRICut=       1 DoRegI=T DoRafI=F ISym2E= 1 IDoP0=0 IntGTp=1.
 FoFCou: FMM=F IPFlag=           0 FMFlag=      100000 FMFlg1=         800
         NFxFlg=           0 DoJE=F BraDBF=F KetDBF=F FulRan=T
         wScrn=  0.000000 ICntrl=      2127 IOpCl=  0 I1Cent=           0 NGrid=           0
         NMat0=    1 NMatS0=      1 NMatT0=    0 NMatD0=    1 NMtDS0=    0 NMtDT0=    0
 Petite list used in FoFCou.
 Leave Link  703 at Mon Apr 25 13:10:25 2022, MaxMem=  8589934592 cpu:               5.9 elap:               0.2
 (Enter /gpfslocalsup/prod/g16/rev-C01/g16/l716.exe)
 Dipole        = 0.00000000D+00-2.22044605D-16 2.22044605D-16
 ***** Axes restored to original set *****
 -------------------------------------------------------------------
 Center     Atomic                   Forces (Hartrees/Bohr)
 Number     Number              X              Y              Z
 -------------------------------------------------------------------
      1        6           0.000000000   -0.000000000   -0.000000000
      2        1          -0.000000000   -0.000000000    0.000000139
      3        1           0.000000131   -0.000000000   -0.000000046
      4        1          -0.000000066    0.000000114   -0.000000046
      5        1          -0.000000066   -0.000000114   -0.000000046
 -------------------------------------------------------------------
 Cartesian Forces:  Max     0.000000139 RMS     0.000000072
 Leave Link  716 at Mon Apr 25 13:10:25 2022, MaxMem=  8589934592 cpu:               1.0 elap:               0.1
 (Enter /gpfslocalsup/prod/g16/rev-C01/g16/l103.exe)

 GradGradGradGradGradGradGradGradGradGradGradGradGradGradGradGradGradGrad
 Berny optimization.
 Using GEDIIS/GDIIS optimizer.
 FormGI is forming the generalized inverse of G from B-inverse, IUseBI=4.
 Internal  Forces:  Max     0.000000139 RMS     0.000000074
 Search for a local minimum.
 Step number   3 out of a maximum of   24
 All quantities printed in internal units (Hartrees-Bohrs-Radians)
 RMS Force = .74337D-07 SwitMx=.10000D-02 MixMth= 2
 Mixed Optimization -- En-DIIS/RFO-DIIS
 Swapping is turned off.
 Update second derivatives using D2CorX and points    1    2    3
 DE= -3.54D-06 DEPred=-3.41D-06 R= 1.04D+00
 TightC=F SS=  1.41D+00  RLast= 4.27D-03 DXNew= 5.0454D-01 1.2799D-02
 Trust test= 1.04D+00 RLast= 4.27D-03 DXMaxT set to 3.00D-01
 The second derivative matrix:
                          R1        R2        R3        R4        A1
           R1           0.37640
           R2           0.00410   0.37640
           R3           0.00410   0.00410   0.37640
           R4           0.00410   0.00410   0.00410   0.37640
           A1          -0.00000  -0.00000  -0.00000  -0.00000   0.16000
           A2          -0.00000  -0.00000  -0.00000  -0.00000   0.00000
           A3           0.00000   0.00000   0.00000   0.00000  -0.00000
           A4           0.00000   0.00000   0.00000   0.00000  -0.00000
           A5           0.00000   0.00000   0.00000   0.00000   0.00000
           A6           0.00000   0.00000   0.00000   0.00000  -0.00000
           D1          -0.00000  -0.00000  -0.00000  -0.00000   0.00000
           D2           0.00000   0.00000   0.00000   0.00000  -0.00000
           D3          -0.00000  -0.00000  -0.00000  -0.00000  -0.00000
           D4          -0.00000  -0.00000  -0.00000  -0.00000  -0.00000
                          A2        A3        A4        A5        A6
           A2           0.16000
           A3           0.00000   0.16000
           A4           0.00000  -0.00000   0.16000
           A5          -0.00000  -0.00000   0.00000   0.16000
           A6           0.00000   0.00000  -0.00000  -0.00000   0.16000
           D1          -0.00000   0.00000   0.00000  -0.00000   0.00000
           D2           0.00000  -0.00000  -0.00000   0.00000  -0.00000
           D3           0.00000  -0.00000  -0.00000   0.00000  -0.00000
           D4           0.00000  -0.00000  -0.00000   0.00000  -0.00000
                          D1        D2        D3        D4
           D1           0.00499
           D2          -0.00000   0.00499
           D3          -0.00000   0.00000   0.00499
           D4          -0.00000   0.00000   0.00000   0.00499
 ITU=  1  1  0
     Eigenvalues ---    0.05269   0.05891   0.08766   0.16000   0.16000
     Eigenvalues ---    0.37230   0.37230   0.37230   0.38871
 En-DIIS/RFO-DIIS/Sim-DIIS IScMMF=       -3 using points:     3    2
 RFO step:  Lambda= 0.00000000D+00.
 NNeg= 0 NGDIIS= 2 SimSw=  2.50D-03 Rises=F DC= -3.54D-06 SmlDif=  1.00D-05
 NRisDI= 0 DoIntr=F SqrtH=F CThrHd= 10.0 CDAdj=  3.0
 RMS Error=  0.1912419253D-06 NUsed= 2 OKEnD=F EnDIS=F
 InvSVX:  RCond= 2.05D-05 Info=           0 Equed=N FErr=  8.88D-16 BErr=  7.77D-18
 DidBck=F Rises=F RFO-DIIS coefs:    0.99983    0.00017
 Iteration  1 RMS(Cart)=  0.00000019 RMS(Int)=  0.00000000
 ITry= 1 IFail=0 DXMaxC= 3.58D-07 DCOld= 1.00D+10 DXMaxT= 3.00D-01 DXLimC= 3.00D+00 Rises=F
 ClnCor:  largest displacement from symmetrization is 2.56D-14 for atom     2.
 Variable       Old X    -DE/DX   Delta X   Delta X   Delta X     New X
                                 (Linear)    (Quad)   (Total)
    R1        2.04782   0.00000   0.00000  -0.00000   0.00000   2.04782
    R2        2.04782   0.00000   0.00000  -0.00000   0.00000   2.04782
    R3        2.04782   0.00000   0.00000   0.00000   0.00000   2.04782
    R4        2.04782   0.00000   0.00000   0.00000   0.00000   2.04782
    A1        1.91063  -0.00000   0.00000  -0.00000   0.00000   1.91063
    A2        1.91063  -0.00000   0.00000  -0.00000   0.00000   1.91063
    A3        1.91063   0.00000   0.00000   0.00000   0.00000   1.91063
    A4        1.91063   0.00000   0.00000   0.00000   0.00000   1.91063
    A5        1.91063   0.00000   0.00000   0.00000   0.00000   1.91063
    A6        1.91063   0.00000   0.00000   0.00000   0.00000   1.91063
    D1        2.09440  -0.00000   0.00000  -0.00000  -0.00000   2.09440
    D2       -2.09440   0.00000   0.00000   0.00000   0.00000  -2.09440
    D3        2.09440  -0.00000   0.00000  -0.00000   0.00000   2.09440
    D4       -2.09440  -0.00000   0.00000  -0.00000   0.00000  -2.09440
         Item               Value     Threshold  Converged?
 Maximum Force            0.000000     0.000450     YES
 RMS     Force            0.000000     0.000300     YES
 Maximum Displacement     0.000000     0.001800     YES
 RMS     Displacement     0.000000     0.001200     YES
 Predicted change in Energy=-9.951463D-14
 Optimization completed.
    -- Stationary point found.
                           ----------------------------
                           !   Optimized Parameters   !
                           ! (Angstroms and Degrees)  !
 --------------------------                            --------------------------
 ! Name  Definition              Value          Derivative Info.                !
 --------------------------------------------------------------------------------
 ! R1    R(1,2)                  1.0837         -DE/DX =    0.0                 !
 ! R2    R(1,3)                  1.0837         -DE/DX =    0.0                 !
 ! R3    R(1,4)                  1.0837         -DE/DX =    0.0                 !
 ! R4    R(1,5)                  1.0837         -DE/DX =    0.0                 !
 ! A1    A(2,1,3)              109.4712         -DE/DX =    0.0                 !
 ! A2    A(2,1,4)              109.4712         -DE/DX =    0.0                 !
 ! A3    A(2,1,5)              109.4712         -DE/DX =    0.0                 !
 ! A4    A(3,1,4)              109.4712         -DE/DX =    0.0                 !
 ! A5    A(3,1,5)              109.4712         -DE/DX =    0.0                 !
 ! A6    A(4,1,5)              109.4712         -DE/DX =    0.0                 !
 ! D1    D(2,1,4,3)            120.0            -DE/DX =    0.0                 !
 ! D2    D(2,1,5,3)           -120.0            -DE/DX =    0.0                 !
 ! D3    D(2,1,5,4)            120.0            -DE/DX =    0.0                 !
 ! D4    D(3,1,5,4)           -120.0            -DE/DX =    0.0                 !
 --------------------------------------------------------------------------------
 Lowest energy point so far.  Saving SCF results.
 Largest change from initial coordinates is atom    2       0.673 Angstoms.
 GradGradGradGradGradGradGradGradGradGradGradGradGradGradGradGradGradGrad

 Leave Link  103 at Mon Apr 25 13:10:25 2022, MaxMem=  8589934592 cpu:               0.8 elap:               0.1
 (Enter /gpfslocalsup/prod/g16/rev-C01/g16/l202.exe)
                          Input orientation:                          
 ---------------------------------------------------------------------
 Center     Atomic      Atomic             Coordinates (Angstroms)
 Number     Number       Type             X           Y           Z
 ---------------------------------------------------------------------
      1          6           0       -0.000000    0.000000   -0.000000
      2          1           0       -0.000000   -0.000000    1.083658
      3          1           0        1.021682   -0.000001   -0.361219
      4          1           0       -0.510840    0.884804   -0.361219
      5          1           0       -0.510842   -0.884802   -0.361220
 ---------------------------------------------------------------------
                    Distance matrix (angstroms):
                    1          2          3          4          5
     1  C    0.000000
     2  H    1.083658   0.000000
     3  H    1.083658   1.769606   0.000000
     4  H    1.083658   1.769606   1.769606   0.000000
     5  H    1.083658   1.769606   1.769606   1.769606   0.000000
 Stoichiometry    CH4
 Framework group  TD[O(C),4C3(H)]
 Deg. of freedom     1
 Full point group                 TD      NOp  24
 RotChk:  IX=0 Diff= 8.12D-16
 Largest Abelian subgroup         D2      NOp   4
 Largest concise Abelian subgroup D2      NOp   4
                         Standard orientation:                         
 ---------------------------------------------------------------------
 Center     Atomic      Atomic             Coordinates (Angstroms)
 Number     Number       Type             X           Y           Z
 ---------------------------------------------------------------------
      1          6           0        0.000000    0.000000    0.000000
      2          1           0        0.625650    0.625650    0.625650
      3          1           0       -0.625650   -0.625650    0.625650
      4          1           0        0.625650   -0.625650   -0.625650
      5          1           0       -0.625650    0.625650   -0.625650
 ---------------------------------------------------------------------
 Rotational constants (GHZ):         160.1323224         160.1323224         160.1323224
 Leave Link  202 at Mon Apr 25 13:10:25 2022, MaxMem=  8589934592 cpu:               0.5 elap:               0.0
 (Enter /gpfslocalsup/prod/g16/rev-C01/g16/l601.exe)
 Copying SCF densities to generalized density rwf, IOpCl= 0 IROHF=0.

 **********************************************************************

            Population analysis using the SCF Density.

 **********************************************************************

 Orbital symmetries:
       Occupied  (A1) (A1) (T2) (T2) (T2)
       Virtual   (A1) (T2) (T2) (T2) (T2) (T2) (T2) (T2) (T2) (T2)
                 (A1) (A1) (E) (E) (T2) (T2) (T2) (A1)
 The electronic state is 1-A1.
 Alpha  occ. eigenvalues --  -11.20496  -0.94457  -0.54618  -0.54618  -0.54618
 Alpha virt. eigenvalues --    0.25707   0.32781   0.32781   0.32781   0.72820
 Alpha virt. eigenvalues --    0.72820   0.72820   1.18438   1.18438   1.18438
 Alpha virt. eigenvalues --    1.25166   1.31491   1.94087   1.94087   2.59183
 Alpha virt. eigenvalues --    2.59183   2.59183   4.61192
          Condensed to atoms (all electrons):
               1          2          3          4          5
     1  C    5.105184   0.388826   0.388826   0.388826   0.388826
     2  H    0.388826   0.524272  -0.026074  -0.026074  -0.026074
     3  H    0.388826  -0.026074   0.524272  -0.026074  -0.026074
     4  H    0.388826  -0.026074  -0.026074   0.524272  -0.026074
     5  H    0.388826  -0.026074  -0.026074  -0.026074   0.524272
 Mulliken charges:
               1
     1  C   -0.660490
     2  H    0.165122
     3  H    0.165122
     4  H    0.165122
     5  H    0.165122
 Sum of Mulliken charges =   0.00000
 Mulliken charges with hydrogens summed into heavy atoms:
               1
     1  C    0.000000
 Electronic spatial extent (au):  <R**2>=             35.4457
 Charge=              0.0000 electrons
 Dipole moment (field-independent basis, Debye):
    X=             -0.0000    Y=             -0.0000    Z=              0.0000  Tot=              0.0000
 Quadrupole moment (field-independent basis, Debye-Ang):
   XX=             -8.3713   YY=             -8.3713   ZZ=             -8.3713
   XY=             -0.0000   XZ=             -0.0000   YZ=              0.0000
 Traceless Quadrupole moment (field-independent basis, Debye-Ang):
   XX=              0.0000   YY=              0.0000   ZZ=             -0.0000
   XY=             -0.0000   XZ=             -0.0000   YZ=              0.0000
 Octapole moment (field-independent basis, Debye-Ang**2):
  XXX=             -0.0000  YYY=             -0.0000  ZZZ=              0.0000  XYY=             -0.0000
  XXY=             -0.0000  XXZ=              0.0000  XZZ=              0.0000  YZZ=             -0.0000
  YYZ=             -0.0000  XYZ=              0.6439
 Hexadecapole moment (field-independent basis, Debye-Ang**3):
 XXXX=            -15.8015 YYYY=            -15.8015 ZZZZ=            -15.8015 XXXY=             -0.0000
 XXXZ=             -0.0000 YYYX=             -0.0000 YYYZ=              0.0000 ZZZX=             -0.0000
 ZZZY=              0.0000 XXYY=             -4.8305 XXZZ=             -4.8305 YYZZ=             -4.8305
 XXYZ=              0.0000 YYXZ=             -0.0000 ZZXY=              0.0000
 N-N= 1.351402102951D+01 E-N=-1.200250305001D+02  KE= 4.018277942865D+01
 Symmetry A    KE= 3.445503774583D+01
 Symmetry B1   KE= 1.909247227607D+00
 Symmetry B2   KE= 1.909247227607D+00
 Symmetry B3   KE= 1.909247227607D+00
 No NMR shielding tensors so no spin-rotation constants.
 Leave Link  601 at Mon Apr 25 13:10:26 2022, MaxMem=  8589934592 cpu:               3.9 elap:               0.1
 (Enter /gpfslocalsup/prod/g16/rev-C01/g16/l9999.exe)
 Unable to Open any file for archive entry.
 1\1\GINC-R2I0N1\FOpt\RHF\6-31G(d)\C1H4\RQEV002\25-Apr-2022\0\\#p HF/6-
 31G(d) OPT SCF=Tight\\Methane\\0,1\C,-0.0000001067,0.0000001144,0.\H,-
 0.0000004048,-0.000000244,1.0836577992\H,1.0216823637,-0.0000006012,-0
 .3612189854\H,-0.5108404697,0.8848035394,-0.3612191143\H,-0.5108419161
 ,-0.8848022365,-0.3612196996\\Version=ES64L-G16RevC.01\State=1-A1\HF=-
 40.1951719\RMSD=5.733e-09\RMSF=7.182e-08\Dipole=0.,0.,0.\Quadrupole=0.
 ,0.,0.,0.,0.,0.\PG=TD [O(C1),4C3(H1)]\\@
 The archive entry for this job was punched.


      HUMANKIND PERIODICALLY GOES THROUGH A SPEEDUP OF ITS AFFAIRS, 
      THEREBY EXPERIENCING THE RACE BETWEEN THE RENEWABLE VITALITY
      OF THE LIVING, AND THE BECKONING VITIATION OF DECADENCE.
      IN THIS PERIODIC RACE, ANY PAUSE BECOMES A LUXURY.
      ONLY THEN CAN ONE REFLECT THAT ALL IS PERMITTED;
      ALL IS POSSIBLE.

                              -- THE APOCRYPHA OF MUAD'DIB
                                 CHILDREN OF DUNE, BY FRANK HERBERT
 Job cpu time:       0 days  0 hours  2 minutes  9.4 seconds.
 Elapsed time:       0 days  0 hours  0 minutes  4.3 seconds.
 File lengths (MBytes):  RWF=    272 Int=      0 D2E=      0 Chk=     32 Scr=     32
 Normal termination of Gaussian 16 at Mon Apr 25 13:10:26 2022.
 Initial command:
 /gpfslocalsup/prod/g16/rev-C01/g16/l1.exe "/gpfsscratch/rech/qev/rqev002/Gau-2330890.inp" -scrdir="/gpfsscratch/rech/qev/rqev002/"
 Default CPUs for threads: 0-39
 Default is to use a total of  40 processors:
                               40 via shared-memory
                                1 via Linda
 Entering Link 1 = /gpfslocalsup/prod/g16/rev-C01/g16/l1.exe PID=   2332462.
  
 Copyright (c) 1988-2019, Gaussian, Inc.  All Rights Reserved.
  
 This is part of the Gaussian(R) 16 program.  It is based on
 the Gaussian(R) 09 system (copyright 2009, Gaussian, Inc.),
 the Gaussian(R) 03 system (copyright 2003, Gaussian, Inc.),
 the Gaussian(R) 98 system (copyright 1998, Gaussian, Inc.),
 the Gaussian(R) 94 system (copyright 1995, Gaussian, Inc.),
 the Gaussian 92(TM) system (copyright 1992, Gaussian, Inc.),
 the Gaussian 90(TM) system (copyright 1990, Gaussian, Inc.),
 the Gaussian 88(TM) system (copyright 1988, Gaussian, Inc.),
 the Gaussian 86(TM) system (copyright 1986, Carnegie Mellon
 University), and the Gaussian 82(TM) system (copyright 1983,
 Carnegie Mellon University). Gaussian is a federally registered
 trademark of Gaussian, Inc.
  
 This software contains proprietary and confidential information,
 including trade secrets, belonging to Gaussian, Inc.
  
 This software is provided under written license and may be
 used, copied, transmitted, or stored only in accord with that
 written license.
  
 The following legend is applicable only to US Government
 contracts under FAR:
  
                    RESTRICTED RIGHTS LEGEND
  
 Use, reproduction and disclosure by the US Government is
 subject to restrictions as set forth in subparagraphs (a)
 and (c) of the Commercial Computer Software - Restricted
 Rights clause in FAR 52.227-19.
  
 Gaussian, Inc.
 340 Quinnipiac St., Bldg. 40, Wallingford CT 06492
  
  
 ---------------------------------------------------------------
 Warning -- This program may not be used in any manner that
 competes with the business of Gaussian, Inc. or will provide
 assistance to any competitor of Gaussian, Inc.  The licensee
 of this program is prohibited from giving any competitor of
 Gaussian, Inc. access to this program.  By using this program,
 the user acknowledges that Gaussian, Inc. is engaged in the
 business of creating and licensing software in the field of
 computational chemistry and represents and warrants to the
 licensee that it is not a competitor of Gaussian, Inc. and that
 it will not use this program in any manner prohibited above.
 ---------------------------------------------------------------
  

 Cite this work as:
 Gaussian 16, Revision C.01,
 M. J. Frisch, G. W. Trucks, H. B. Schlegel, G. E. Scuseria, 
 M. A. Robb, J. R. Cheeseman, G. Scalmani, V. Barone, 
 G. A. Petersson, H. Nakatsuji, X. Li, M. Caricato, A. V. Marenich, 
 J. Bloino, B. G. Janesko, R. Gomperts, B. Mennucci, H. P. Hratchian, 
 J. V. Ortiz, A. F. Izmaylov, J. L. Sonnenberg, D. Williams-Young, 
 F. Ding, F. Lipparini, F. Egidi, J. Goings, B. Peng, A. Petrone, 
 T. Henderson, D. Ranasinghe, V. G. Zakrzewski, J. Gao, N. Rega, 
 G. Zheng, W. Liang, M. Hada, M. Ehara, K. Toyota, R. Fukuda, 
 J. Hasegawa, M. Ishida, T. Nakajima, Y. Honda, O. Kitao, H. Nakai, 
 T. Vreven, K. Throssell, J. A. Montgomery, Jr., J. E. Peralta, 
 F. Ogliaro, M. J. Bearpark, J. J. Heyd, E. N. Brothers, K. N. Kudin, 
 V. N. Staroverov, T. A. Keith, R. Kobayashi, J. Normand, 
 K. Raghavachari, A. P. Rendell, J. C. Burant, S. S. Iyengar, 
 J. Tomasi, M. Cossi, J. M. Millam, M. Klene, C. Adamo, R. Cammi, 
 J. W. Ochterski, R. L. Martin, K. Morokuma, O. Farkas, 
 J. B. Foresman, and D. J. Fox, Gaussian, Inc., Wallingford CT, 2019.
 
 ******************************************
 Gaussian 16:  ES64L-G16RevC.01  3-Jul-2019
                25-Apr-2022 
 ******************************************
 %chk=met_opt.chk
 SetSPE:  set environment variable "MP_BIND" = "yes"
 SetSPE:  set environment variable "MP_BLIST" = "0,1,2,3,4,5,6,7,8,9,10,11,12,13,14,15,16,17,18,19,20,21,22,23,24,25,26,27,28,29,30,31,32,33,34,35,36,37,38,39"
 ----------------------------------------------------------------------
 #p HF/6-31G(d) SCF=Tight Pop=(MK,ReadRadii) IOp(6/33=2,6/41=10,6/42=17
 ) geom=checkpoint guess=read
 ----------------------------------------------------------------------
 1/29=2,38=1,172=1/1;
 2/12=2,40=1/2;
 3/5=1,6=6,7=1,11=9,14=-4,25=1,30=1,116=-2/1,2,3;
 4/5=1/1;
 5/5=2,32=2,38=6/2;
[...]
 **** Fit      -0.000008
 **** Fit       0.000021
 **** Fit       0.000041
 **** Fit       0.000051
 **** Fit       0.000051
 **** Fit       0.000041
 **** Fit       0.000021
 **** Fit      -0.000008
 **** Fit      -0.000046
 **** Fit      -0.000103
 **** Fit      -0.000096
 **** Fit      -0.000098
 **** Fit      -0.000110
 **** Fit      -0.000110
 **** Fit      -0.000098
 **** Fit      -0.000096
 **** Fit      -0.000103
 **** Fit      -0.000046
 **** Fit      -0.000008
 **** Fit       0.000021
 **** Fit       0.000041
 **** Fit       0.000051
 **** Fit       0.000051
 **** Fit       0.000041
 **** Fit       0.000021
 **** Fit      -0.000008
 **** Fit      -0.000046
 **** Fit      -0.000012
 **** Fit       0.000043
 **** Fit       0.000092
 **** Fit       0.000132
 **** Fit       0.000162
 **** Fit       0.000183
 **** Fit       0.000192
 **** Fit       0.000191
 **** Fit       0.000178
 **** Fit       0.000156
 **** Fit       0.000123
 **** Fit       0.000080
 **** Fit       0.000030
 **** Fit      -0.000027
 **** Fit       0.000033
 **** Fit       0.000101
 **** Fit       0.000162
 **** Fit       0.000215
 **** Fit       0.000258
 **** Fit       0.000291
 **** Fit       0.000313
 **** Fit       0.000323
 **** Fit       0.000322
 **** Fit       0.000309
 **** Fit       0.000284
 **** Fit       0.000248
 **** Fit       0.000202
 **** Fit       0.000147
 **** Fit       0.000084
 **** Fit       0.000015
 **** Fit       0.000052
 **** Fit       0.000133
 **** Fit       0.000207
 **** Fit       0.000272
 **** Fit       0.000329
 **** Fit       0.000375
 **** Fit       0.000410
 **** Fit       0.000433
 **** Fit       0.000443
 **** Fit       0.000442
 **** Fit       0.000428
 **** Fit       0.000402
 **** Fit       0.000364
 **** Fit       0.000315
 **** Fit       0.000257
 **** Fit       0.000189
 **** Fit       0.000113
 **** Fit       0.000032
 **** Fit       0.000025
 **** Fit       0.000048
 **** Fit       0.000140
 **** Fit       0.000226
 **** Fit       0.000304
 **** Fit       0.000373
 **** Fit       0.000432
 **** Fit       0.000480
 **** Fit       0.000516
 **** Fit       0.000540
 **** Fit       0.000551
 **** Fit       0.000549
 **** Fit       0.000535
 **** Fit       0.000508
 **** Fit       0.000469
 **** Fit       0.000418
 **** Fit       0.000356
 **** Fit       0.000285
 **** Fit       0.000205
 **** Fit       0.000118
 **** Fit       0.000100
 **** Fit      -0.000005
 **** Fit      -0.000005
 **** Fit       0.000100
 **** Fit       0.000199
 **** Fit       0.000291
 **** Fit       0.000375
 **** Fit       0.000449
 **** Fit       0.000512
 **** Fit       0.000564
 **** Fit       0.000604
 **** Fit       0.000630
 **** Fit       0.000644
 **** Fit       0.000644
 **** Fit       0.000630
 **** Fit       0.000604
 **** Fit       0.000564
 **** Fit       0.000512
 **** Fit       0.000449
 **** Fit       0.000375
 **** Fit       0.000291
 **** Fit       0.000199
 **** Fit       0.000168
 **** Fit       0.000057
 **** Fit      -0.000060
 **** Fit      -0.000001
 **** Fit       0.000113
 **** Fit       0.000222
 **** Fit       0.000322
 **** Fit       0.000414
 **** Fit       0.000496
 **** Fit       0.000566
 **** Fit       0.000625
 **** Fit       0.000670
 **** Fit       0.000702
 **** Fit       0.000720
 **** Fit       0.000724
 **** Fit       0.000713
 **** Fit       0.000688
 **** Fit       0.000649
 **** Fit       0.000597
 **** Fit       0.000533
 **** Fit       0.000456
 **** Fit       0.000369
 **** Fit       0.000273
 **** Fit       0.000229
 **** Fit       0.000113
 **** Fit      -0.000009
 **** Fit      -0.000009
 **** Fit       0.000113
 **** Fit       0.000229
 **** Fit       0.000338
 **** Fit       0.000437
 **** Fit       0.000526
 **** Fit       0.000604
 **** Fit       0.000668
 **** Fit       0.000720
 **** Fit       0.000757
 **** Fit       0.000779
 **** Fit       0.000787
 **** Fit       0.000779
 **** Fit       0.000757
 **** Fit       0.000720
 **** Fit       0.000668
 **** Fit       0.000604
 **** Fit       0.000526
 **** Fit       0.000437
 **** Fit       0.000338
 **** Fit       0.000282
 **** Fit       0.000163
 **** Fit       0.000036
 **** Fit      -0.000029
 **** Fit       0.000100
 **** Fit       0.000223
 **** Fit       0.000338
 **** Fit       0.000444
 **** Fit       0.000540
 **** Fit       0.000623
 **** Fit       0.000694
 **** Fit       0.000751
 **** Fit       0.000793
 **** Fit       0.000820
 **** Fit       0.000832
 **** Fit       0.000828
 **** Fit       0.000809
 **** Fit       0.000774
 **** Fit       0.000724
 **** Fit       0.000660
 **** Fit       0.000583
 **** Fit       0.000493
 **** Fit       0.000393
 **** Fit       0.000324
 **** Fit       0.000202
 **** Fit       0.000072
 **** Fit      -0.000064
 **** Fit      -0.000099
 **** Fit       0.000038
 **** Fit       0.000170
 **** Fit       0.000294
 **** Fit       0.000410
 **** Fit       0.000515
 **** Fit       0.000608
 **** Fit       0.000688
 **** Fit       0.000754
 **** Fit       0.000804
 **** Fit       0.000839
 **** Fit       0.000858
 **** Fit       0.000860
 **** Fit       0.000845
 **** Fit       0.000815
 **** Fit       0.000768
 **** Fit       0.000706
 **** Fit       0.000629
 **** Fit       0.000539
 **** Fit       0.000437
 **** Fit       0.000356
 **** Fit       0.000232
 **** Fit       0.000100
 **** Fit      -0.000038
 **** Fit      -0.000038
 **** Fit       0.000100
 **** Fit       0.000232
 **** Fit       0.000356
 **** Fit       0.000470
 **** Fit       0.000572
 **** Fit       0.000661
 **** Fit       0.000736
 **** Fit       0.000795
 **** Fit       0.000838
 **** Fit       0.000864
 **** Fit       0.000872
 **** Fit       0.000864
 **** Fit       0.000838
 **** Fit       0.000795
 **** Fit       0.000736
 **** Fit       0.000661
 **** Fit       0.000572
 **** Fit       0.000470
 **** Fit       0.000377
 **** Fit       0.000251
 **** Fit       0.000116
 **** Fit      -0.000025
 **** Fit      -0.000025
 **** Fit       0.000116
 **** Fit       0.000251
 **** Fit       0.000377
 **** Fit       0.000491
 **** Fit       0.000593
 **** Fit       0.000681
 **** Fit       0.000753
 **** Fit       0.000808
 **** Fit       0.000845
 **** Fit       0.000864
 **** Fit       0.000864
 **** Fit       0.000845
 **** Fit       0.000808
 **** Fit       0.000753
 **** Fit       0.000681
 **** Fit       0.000593
 **** Fit       0.000491
 **** Fit       0.000385
 **** Fit       0.000259
 **** Fit       0.000124
 **** Fit      -0.000019
 **** Fit      -0.000019
 **** Fit       0.000124
 **** Fit       0.000259
 **** Fit       0.000385
 **** Fit       0.000500
 **** Fit       0.000601
 **** Fit       0.000686
 **** Fit       0.000753
 **** Fit       0.000803
 **** Fit       0.000832
 **** Fit       0.000842
 **** Fit       0.000832
 **** Fit       0.000803
 **** Fit       0.000753
 **** Fit       0.000686
 **** Fit       0.000601
 **** Fit       0.000500
 **** Fit       0.000382
 **** Fit       0.000255
 **** Fit       0.000117
 **** Fit      -0.000028
 **** Fit      -0.000064
 **** Fit       0.000081
 **** Fit       0.000221
 **** Fit       0.000352
 **** Fit       0.000470
 **** Fit       0.000573
 **** Fit       0.000659
 **** Fit       0.000726
 **** Fit       0.000773
 **** Fit       0.000798
 **** Fit       0.000801
 **** Fit       0.000781
 **** Fit       0.000740
 **** Fit       0.000678
 **** Fit       0.000597
 **** Fit       0.000497
 **** Fit       0.000368
 **** Fit       0.000240
 **** Fit       0.000101
 **** Fit      -0.000044
 **** Fit       0.000029
 **** Fit       0.000171
 **** Fit       0.000305
 **** Fit       0.000427
 **** Fit       0.000532
 **** Fit       0.000619
 **** Fit       0.000684
 **** Fit       0.000726
 **** Fit       0.000745
 **** Fit       0.000739
 **** Fit       0.000708
 **** Fit       0.000654
 **** Fit       0.000578
 **** Fit       0.000482
 **** Fit       0.000342
 **** Fit       0.000215
 **** Fit       0.000077
 **** Fit      -0.000067
 **** Fit      -0.000031
 **** Fit       0.000112
 **** Fit       0.000247
 **** Fit       0.000371
 **** Fit       0.000478
 **** Fit       0.000564
 **** Fit       0.000627
 **** Fit       0.000664
 **** Fit       0.000674
 **** Fit       0.000657
 **** Fit       0.000613
 **** Fit       0.000544
 **** Fit       0.000453
 **** Fit       0.000304
 **** Fit       0.000180
 **** Fit       0.000045
 **** Fit       0.000045
 **** Fit       0.000180
 **** Fit       0.000304
 **** Fit       0.000411
 **** Fit       0.000496
 **** Fit       0.000555
 **** Fit       0.000585
 **** Fit       0.000585
 **** Fit       0.000555
 **** Fit       0.000496
 **** Fit       0.000411
 **** Fit       0.000257
 **** Fit       0.000133
 **** Fit      -0.000002
 **** Fit      -0.000071
 **** Fit       0.000066
 **** Fit       0.000197
 **** Fit       0.000312
 **** Fit       0.000402
 **** Fit       0.000463
 **** Fit       0.000490
 **** Fit       0.000481
 **** Fit       0.000437
 **** Fit       0.000360
 **** Fit       0.000200
 **** Fit       0.000077
 **** Fit      -0.000057
 **** Fit      -0.000057
 **** Fit       0.000077
 **** Fit       0.000200
 **** Fit       0.000298
 **** Fit       0.000361
 **** Fit       0.000383
 **** Fit       0.000361
 **** Fit       0.000298
 **** Fit       0.000135
 **** Fit       0.000014
 **** Fit       0.000077
 **** Fit       0.000185
 **** Fit       0.000251
 **** Fit       0.000265
 **** Fit       0.000224
 **** Fit       0.000063
 **** Fit       0.000063
 **** Fit       0.000136
 **** Fit       0.000136
 **** Fit      -0.000015
 **** Fit       0.000019
 **** Fit      -0.000110
 **** Fit      -0.000098
 **** Fit      -0.000096
 **** Fit      -0.000103
 **** Fit      -0.000046
 **** Fit      -0.000008
 **** Fit       0.000021
 **** Fit       0.000041
 **** Fit       0.000051
 **** Fit       0.000051
 **** Fit       0.000041
 **** Fit       0.000021
 **** Fit      -0.000008
 **** Fit      -0.000046
 **** Fit      -0.000042
 **** Fit       0.000016
 **** Fit       0.000069
 **** Fit       0.000113
 **** Fit       0.000148
 **** Fit       0.000174
 **** Fit       0.000189
 **** Fit       0.000193
 **** Fit       0.000186
 **** Fit       0.000168
 **** Fit       0.000140
 **** Fit       0.000103
 **** Fit       0.000056
 **** Fit       0.000002
 **** Fit      -0.000004
 **** Fit       0.000067
 **** Fit       0.000132
 **** Fit       0.000189
 **** Fit       0.000238
 **** Fit       0.000276
 **** Fit       0.000304
 **** Fit       0.000320
 **** Fit       0.000324
 **** Fit       0.000317
 **** Fit       0.000298
 **** Fit       0.000267
 **** Fit       0.000227
 **** Fit       0.000176
 **** Fit       0.000117
 **** Fit       0.000050
 **** Fit      -0.000022
 **** Fit       0.000010
 **** Fit       0.000093
 **** Fit       0.000171
 **** Fit       0.000241
 **** Fit       0.000302
 **** Fit       0.000353
 **** Fit       0.000394
 **** Fit       0.000423
 **** Fit       0.000440
 **** Fit       0.000444
 **** Fit       0.000437
 **** Fit       0.000416
 **** Fit       0.000384
 **** Fit       0.000341
 **** Fit       0.000287
 **** Fit       0.000224
 **** Fit       0.000152
 **** Fit       0.000073
 **** Fit      -0.000011
 **** Fit       0.000001
 **** Fit       0.000095
 **** Fit       0.000184
 **** Fit       0.000266
 **** Fit       0.000339
 **** Fit       0.000404
 **** Fit       0.000457
 **** Fit       0.000499
 **** Fit       0.000529
 **** Fit       0.000547
 **** Fit       0.000552
 **** Fit       0.000544
 **** Fit       0.000523
 **** Fit       0.000490
 **** Fit       0.000445
 **** Fit       0.000388
 **** Fit       0.000322
 **** Fit       0.000246
 **** Fit       0.000162
 **** Fit       0.000072
 **** Fit      -0.000024
 **** Fit      -0.000005
 **** Fit       0.000100
 **** Fit       0.000199
 **** Fit       0.000291
 **** Fit       0.000375
 **** Fit       0.000449
 **** Fit       0.000512
 **** Fit       0.000564
 **** Fit       0.000604
 **** Fit       0.000630
 **** Fit       0.000644
 **** Fit       0.000644
 **** Fit       0.000630
 **** Fit       0.000604
 **** Fit       0.000564
 **** Fit       0.000512
 **** Fit       0.000449
 **** Fit       0.000375
 **** Fit       0.000291
 **** Fit       0.000199
 **** Fit       0.000100
 **** Fit      -0.000005
 **** Fit      -0.000001
 **** Fit       0.000113
 **** Fit       0.000222
 **** Fit       0.000322
 **** Fit       0.000414
 **** Fit       0.000496
 **** Fit       0.000566
 **** Fit       0.000625
 **** Fit       0.000670
 **** Fit       0.000702
 **** Fit       0.000720
 **** Fit       0.000724
 **** Fit       0.000713
 **** Fit       0.000688
 **** Fit       0.000649
 **** Fit       0.000597
 **** Fit       0.000533
 **** Fit       0.000456
 **** Fit       0.000369
 **** Fit       0.000273
 **** Fit       0.000168
 **** Fit       0.000057
 **** Fit      -0.000060
 **** Fit      -0.000009
 **** Fit       0.000113
 **** Fit       0.000229
 **** Fit       0.000338
 **** Fit       0.000437
 **** Fit       0.000526
 **** Fit       0.000604
 **** Fit       0.000668
 **** Fit       0.000720
 **** Fit       0.000757
 **** Fit       0.000779
 **** Fit       0.000787
 **** Fit       0.000779
 **** Fit       0.000757
 **** Fit       0.000720
 **** Fit       0.000668
 **** Fit       0.000604
 **** Fit       0.000526
 **** Fit       0.000437
 **** Fit       0.000338
 **** Fit       0.000229
 **** Fit       0.000113
 **** Fit      -0.000009
 **** Fit      -0.000029
 **** Fit       0.000100
 **** Fit       0.000223
 **** Fit       0.000338
 **** Fit       0.000444
 **** Fit       0.000540
 **** Fit       0.000623
 **** Fit       0.000694
 **** Fit       0.000751
 **** Fit       0.000793
 **** Fit       0.000820
 **** Fit       0.000832
 **** Fit       0.000828
 **** Fit       0.000809
 **** Fit       0.000774
 **** Fit       0.000724
 **** Fit       0.000660
 **** Fit       0.000583
 **** Fit       0.000493
 **** Fit       0.000393
 **** Fit       0.000282
 **** Fit       0.000163
 **** Fit       0.000036
 **** Fit      -0.000030
 **** Fit       0.000105
 **** Fit       0.000233
 **** Fit       0.000353
 **** Fit       0.000464
 **** Fit       0.000563
 **** Fit       0.000650
 **** Fit       0.000723
 **** Fit       0.000781
 **** Fit       0.000824
 **** Fit       0.000851
 **** Fit       0.000861
 **** Fit       0.000855
 **** Fit       0.000832
 **** Fit       0.000793
 **** Fit       0.000739
 **** Fit       0.000669
 **** Fit       0.000586
 **** Fit       0.000490
 **** Fit       0.000382
 **** Fit       0.000264
 **** Fit       0.000138
 **** Fit       0.000005
 **** Fit      -0.000038
 **** Fit       0.000100
 **** Fit       0.000232
 **** Fit       0.000356
 **** Fit       0.000470
 **** Fit       0.000572
 **** Fit       0.000661
 **** Fit       0.000736
 **** Fit       0.000795
 **** Fit       0.000838
 **** Fit       0.000864
 **** Fit       0.000872
 **** Fit       0.000864
 **** Fit       0.000838
 **** Fit       0.000795
 **** Fit       0.000736
 **** Fit       0.000661
 **** Fit       0.000572
 **** Fit       0.000470
 **** Fit       0.000356
 **** Fit       0.000232
 **** Fit       0.000100
 **** Fit      -0.000038
 **** Fit      -0.000025
 **** Fit       0.000116
 **** Fit       0.000251
 **** Fit       0.000377
 **** Fit       0.000491
 **** Fit       0.000593
 **** Fit       0.000681
 **** Fit       0.000753
 **** Fit       0.000808
 **** Fit       0.000845
 **** Fit       0.000864
 **** Fit       0.000864
 **** Fit       0.000845
 **** Fit       0.000808
 **** Fit       0.000753
 **** Fit       0.000681
 **** Fit       0.000593
 **** Fit       0.000491
 **** Fit       0.000377
 **** Fit       0.000251
 **** Fit       0.000116
 **** Fit      -0.000025
 **** Fit      -0.000019
 **** Fit       0.000124
 **** Fit       0.000259
 **** Fit       0.000385
 **** Fit       0.000500
 **** Fit       0.000601
 **** Fit       0.000686
 **** Fit       0.000753
 **** Fit       0.000803
 **** Fit       0.000832
 **** Fit       0.000842
 **** Fit       0.000832
 **** Fit       0.000803
 **** Fit       0.000753
 **** Fit       0.000686
 **** Fit       0.000601
 **** Fit       0.000500
 **** Fit       0.000385
 **** Fit       0.000259
 **** Fit       0.000124
 **** Fit      -0.000019
 **** Fit       0.000009
 **** Fit       0.000152
 **** Fit       0.000288
 **** Fit       0.000412
 **** Fit       0.000524
 **** Fit       0.000619
 **** Fit       0.000695
 **** Fit       0.000752
 **** Fit       0.000788
 **** Fit       0.000802
 **** Fit       0.000794
 **** Fit       0.000763
 **** Fit       0.000712
 **** Fit       0.000640
 **** Fit       0.000549
 **** Fit       0.000442
 **** Fit       0.000320
 **** Fit       0.000187
 **** Fit       0.000045
 **** Fit      -0.000101
 **** Fit       0.000029
 **** Fit       0.000171
 **** Fit       0.000305
 **** Fit       0.000427
 **** Fit       0.000532
 **** Fit       0.000619
 **** Fit       0.000684
 **** Fit       0.000726
 **** Fit       0.000745
 **** Fit       0.000739
 **** Fit       0.000708
 **** Fit       0.000654
 **** Fit       0.000578
 **** Fit       0.000482
 **** Fit       0.000368
 **** Fit       0.000240
 **** Fit       0.000101
 **** Fit      -0.000044
 **** Fit       0.000041
 **** Fit       0.000181
 **** Fit       0.000311
 **** Fit       0.000427
 **** Fit       0.000524
 **** Fit       0.000598
 **** Fit       0.000648
 **** Fit       0.000672
 **** Fit       0.000669
 **** Fit       0.000638
 **** Fit       0.000582
 **** Fit       0.000501
 **** Fit       0.000399
 **** Fit       0.000280
 **** Fit       0.000147
 **** Fit       0.000005
 **** Fit       0.000045
 **** Fit       0.000180
 **** Fit       0.000304
 **** Fit       0.000411
 **** Fit       0.000496
 **** Fit       0.000555
 **** Fit       0.000585
 **** Fit       0.000585
 **** Fit       0.000555
 **** Fit       0.000496
 **** Fit       0.000411
 **** Fit       0.000304
 **** Fit       0.000180
 **** Fit       0.000045
 **** Fit      -0.000071
 **** Fit       0.000066
 **** Fit       0.000197
 **** Fit       0.000312
 **** Fit       0.000402
 **** Fit       0.000463
 **** Fit       0.000490
 **** Fit       0.000481
 **** Fit       0.000437
 **** Fit       0.000360
 **** Fit       0.000257
 **** Fit       0.000133
 **** Fit      -0.000002
 **** Fit      -0.000057
 **** Fit       0.000077
 **** Fit       0.000200
 **** Fit       0.000298
 **** Fit       0.000361
 **** Fit       0.000383
 **** Fit       0.000361
 **** Fit       0.000298
 **** Fit       0.000200
 **** Fit       0.000077
 **** Fit      -0.000057
 **** Fit       0.000077
 **** Fit       0.000185
 **** Fit       0.000251
 **** Fit       0.000265
 **** Fit       0.000224
 **** Fit       0.000135
 **** Fit       0.000014
 **** Fit       0.000063
 **** Fit       0.000136
 **** Fit       0.000136
 **** Fit       0.000063
 **** Fit       0.000019
 **** Fit      -0.000015
 -----------------------------------------------------------------
 Leave Link  602 at Mon Apr 25 13:10:28 2022, MaxMem=  8589934592 cpu:              11.0 elap:               0.3
 (Enter /gpfslocalsup/prod/g16/rev-C01/g16/l9999.exe)

 Test job not archived.
 1\1\GINC-R2I0N1\SP\RHF\6-31G(d)\C1H4\RQEV002\25-Apr-2022\0\\#p HF/6-31
 G(d) SCF=Tight Pop=(MK,ReadRadii) IOp(6/33=2,6/41=10,6/42=17) geom=che
 ckpoint guess=read\\Met charge RESP\\0,1\C,0,-0.0000001067,0.000000114
 4,0.\H,0,-0.0000004048,-0.000000244,1.0836577992\H,0,1.0216823637,-0.0
 000006012,-0.3612189854\H,0,-0.5108404697,0.8848035394,-0.3612191143\H
 ,0,-0.5108419161,-0.8848022365,-0.3612196996\\Version=ES64L-G16RevC.01
 \State=1-A1\HF=-40.1951719\RMSD=1.795e-10\Dipole=0.,0.,0.\Quadrupole=0
 .,0.,0.,0.,0.,0.\PG=TD [O(C1),4C3(H1)]\\@


 In the race for quality, there is no finish line.
                               -- David T. Kearns
 Job cpu time:       0 days  0 hours  0 minutes 52.5 seconds.
 Elapsed time:       0 days  0 hours  0 minutes  1.6 seconds.
 File lengths (MBytes):  RWF=    272 Int=      0 D2E=      0 Chk=     32 Scr=     32
 Normal termination of Gaussian 16 at Mon Apr 25 13:10:28 2022.
